<?xml version="1.0"?>
<VTKFile type="UnstructuredGrid"  version="0.1"  >
<UnstructuredGrid>
<Piece  NumberOfPoints="16641" NumberOfCells="32768">
<Points>
<DataArray  type="Float64"  NumberOfComponents="3"  format="ascii">0 0 0  0.0078125 0 0  0.015625 0 0  0.0234375 0 0  0.03125 0 0  0.0390625 0 0  0.046875 0 0  0.0546875 0 0  0.0625 0 0  0.0703125 0 0  0.078125 0 0  0.0859375 0 0  0.09375 0 0  0.1015625 0 0  0.109375 0 0  0.1171875 0 0  0.125 0 0  0.1328125 0 0  0.140625 0 0  0.1484375 0 0  0.15625 0 0  0.1640625 0 0  0.171875 0 0  0.1796875 0 0  0.1875 0 0  0.1953125 0 0  0.203125 0 0  0.2109375 0 0  0.21875 0 0  0.2265625 0 0  0.234375 0 0  0.2421875 0 0  0.25 0 0  0.2578125 0 0  0.265625 0 0  0.2734375 0 0  0.28125 0 0  0.2890625 0 0  0.296875 0 0  0.3046875 0 0  0.3125 0 0  0.3203125 0 0  0.328125 0 0  0.3359375 0 0  0.34375 0 0  0.3515625 0 0  0.359375 0 0  0.3671875 0 0  0.375 0 0  0.3828125 0 0  0.390625 0 0  0.3984375 0 0  0.40625 0 0  0.4140625 0 0  0.421875 0 0  0.4296875 0 0  0.4375 0 0  0.4453125 0 0  0.453125 0 0  0.4609375 0 0  0.46875 0 0  0.4765625 0 0  0.484375 0 0  0.4921875 0 0  0.5 0 0  0.5078125 0 0  0.515625 0 0  0.5234375 0 0  0.53125 0 0  0.5390625 0 0  0.546875 0 0  0.5546875 0 0  0.5625 0 0  0.5703125 0 0  0.578125 0 0  0.5859375 0 0  0.59375 0 0  0.6015625 0 0  0.609375 0 0  0.6171875 0 0  0.625 0 0  0.6328125 0 0  0.640625 0 0  0.6484375 0 0  0.65625 0 0  0.6640625 0 0  0.671875 0 0  0.6796875 0 0  0.6875 0 0  0.6953125 0 0  0.703125 0 0  0.7109375 0 0  0.71875 0 0  0.7265625 0 0  0.734375 0 0  0.7421875 0 0  0.75 0 0  0.7578125 0 0  0.765625 0 0  0.7734375 0 0  0.78125 0 0  0.7890625 0 0  0.796875 0 0  0.8046875 0 0  0.8125 0 0  0.8203125 0 0  0.828125 0 0  0.8359375 0 0  0.84375 0 0  0.8515625 0 0  0.859375 0 0  0.8671875 0 0  0.875 0 0  0.8828125 0 0  0.890625 0 0  0.8984375 0 0  0.90625 0 0  0.9140625 0 0  0.921875 0 0  0.9296875 0 0  0.9375 0 0  0.9453125 0 0  0.953125 0 0  0.9609375 0 0  0.96875 0 0  0.9765625 0 0  0.984375 0 0  0.9921875 0 0  1 0 0  0 0.0078125 0  0.0078125 0.0078125 0  0.015625 0.0078125 0  0.0234375 0.0078125 0  0.03125 0.0078125 0  0.0390625 0.0078125 0  0.046875 0.0078125 0  0.0546875 0.0078125 0  0.0625 0.0078125 0  0.0703125 0.0078125 0  0.078125 0.0078125 0  0.0859375 0.0078125 0  0.09375 0.0078125 0  0.1015625 0.0078125 0  0.109375 0.0078125 0  0.1171875 0.0078125 0  0.125 0.0078125 0  0.1328125 0.0078125 0  0.140625 0.0078125 0  0.1484375 0.0078125 0  0.15625 0.0078125 0  0.1640625 0.0078125 0  0.171875 0.0078125 0  0.1796875 0.0078125 0  0.1875 0.0078125 0  0.1953125 0.0078125 0  0.203125 0.0078125 0  0.2109375 0.0078125 0  0.21875 0.0078125 0  0.2265625 0.0078125 0  0.234375 0.0078125 0  0.2421875 0.0078125 0  0.25 0.0078125 0  0.2578125 0.0078125 0  0.265625 0.0078125 0  0.2734375 0.0078125 0  0.28125 0.0078125 0  0.2890625 0.0078125 0  0.296875 0.0078125 0  0.3046875 0.0078125 0  0.3125 0.0078125 0  0.3203125 0.0078125 0  0.328125 0.0078125 0  0.3359375 0.0078125 0  0.34375 0.0078125 0  0.3515625 0.0078125 0  0.359375 0.0078125 0  0.3671875 0.0078125 0  0.375 0.0078125 0  0.3828125 0.0078125 0  0.390625 0.0078125 0  0.3984375 0.0078125 0  0.40625 0.0078125 0  0.4140625 0.0078125 0  0.421875 0.0078125 0  0.4296875 0.0078125 0  0.4375 0.0078125 0  0.4453125 0.0078125 0  0.453125 0.0078125 0  0.4609375 0.0078125 0  0.46875 0.0078125 0  0.4765625 0.0078125 0  0.484375 0.0078125 0  0.4921875 0.0078125 0  0.5 0.0078125 0  0.5078125 0.0078125 0  0.515625 0.0078125 0  0.5234375 0.0078125 0  0.53125 0.0078125 0  0.5390625 0.0078125 0  0.546875 0.0078125 0  0.5546875 0.0078125 0  0.5625 0.0078125 0  0.5703125 0.0078125 0  0.578125 0.0078125 0  0.5859375 0.0078125 0  0.59375 0.0078125 0  0.6015625 0.0078125 0  0.609375 0.0078125 0  0.6171875 0.0078125 0  0.625 0.0078125 0  0.6328125 0.0078125 0  0.640625 0.0078125 0  0.6484375 0.0078125 0  0.65625 0.0078125 0  0.6640625 0.0078125 0  0.671875 0.0078125 0  0.6796875 0.0078125 0  0.6875 0.0078125 0  0.6953125 0.0078125 0  0.703125 0.0078125 0  0.7109375 0.0078125 0  0.71875 0.0078125 0  0.7265625 0.0078125 0  0.734375 0.0078125 0  0.7421875 0.0078125 0  0.75 0.0078125 0  0.7578125 0.0078125 0  0.765625 0.0078125 0  0.7734375 0.0078125 0  0.78125 0.0078125 0  0.7890625 0.0078125 0  0.796875 0.0078125 0  0.8046875 0.0078125 0  0.8125 0.0078125 0  0.8203125 0.0078125 0  0.828125 0.0078125 0  0.8359375 0.0078125 0  0.84375 0.0078125 0  0.8515625 0.0078125 0  0.859375 0.0078125 0  0.8671875 0.0078125 0  0.875 0.0078125 0  0.8828125 0.0078125 0  0.890625 0.0078125 0  0.8984375 0.0078125 0  0.90625 0.0078125 0  0.9140625 0.0078125 0  0.921875 0.0078125 0  0.9296875 0.0078125 0  0.9375 0.0078125 0  0.9453125 0.0078125 0  0.953125 0.0078125 0  0.9609375 0.0078125 0  0.96875 0.0078125 0  0.9765625 0.0078125 0  0.984375 0.0078125 0  0.9921875 0.0078125 0  1 0.0078125 0  0 0.015625 0  0.0078125 0.015625 0  0.015625 0.015625 0  0.0234375 0.015625 0  0.03125 0.015625 0  0.0390625 0.015625 0  0.046875 0.015625 0  0.0546875 0.015625 0  0.0625 0.015625 0  0.0703125 0.015625 0  0.078125 0.015625 0  0.0859375 0.015625 0  0.09375 0.015625 0  0.1015625 0.015625 0  0.109375 0.015625 0  0.1171875 0.015625 0  0.125 0.015625 0  0.1328125 0.015625 0  0.140625 0.015625 0  0.1484375 0.015625 0  0.15625 0.015625 0  0.1640625 0.015625 0  0.171875 0.015625 0  0.1796875 0.015625 0  0.1875 0.015625 0  0.1953125 0.015625 0  0.203125 0.015625 0  0.2109375 0.015625 0  0.21875 0.015625 0  0.2265625 0.015625 0  0.234375 0.015625 0  0.2421875 0.015625 0  0.25 0.015625 0  0.2578125 0.015625 0  0.265625 0.015625 0  0.2734375 0.015625 0  0.28125 0.015625 0  0.2890625 0.015625 0  0.296875 0.015625 0  0.3046875 0.015625 0  0.3125 0.015625 0  0.3203125 0.015625 0  0.328125 0.015625 0  0.3359375 0.015625 0  0.34375 0.015625 0  0.3515625 0.015625 0  0.359375 0.015625 0  0.3671875 0.015625 0  0.375 0.015625 0  0.3828125 0.015625 0  0.390625 0.015625 0  0.3984375 0.015625 0  0.40625 0.015625 0  0.4140625 0.015625 0  0.421875 0.015625 0  0.4296875 0.015625 0  0.4375 0.015625 0  0.4453125 0.015625 0  0.453125 0.015625 0  0.4609375 0.015625 0  0.46875 0.015625 0  0.4765625 0.015625 0  0.484375 0.015625 0  0.4921875 0.015625 0  0.5 0.015625 0  0.5078125 0.015625 0  0.515625 0.015625 0  0.5234375 0.015625 0  0.53125 0.015625 0  0.5390625 0.015625 0  0.546875 0.015625 0  0.5546875 0.015625 0  0.5625 0.015625 0  0.5703125 0.015625 0  0.578125 0.015625 0  0.5859375 0.015625 0  0.59375 0.015625 0  0.6015625 0.015625 0  0.609375 0.015625 0  0.6171875 0.015625 0  0.625 0.015625 0  0.6328125 0.015625 0  0.640625 0.015625 0  0.6484375 0.015625 0  0.65625 0.015625 0  0.6640625 0.015625 0  0.671875 0.015625 0  0.6796875 0.015625 0  0.6875 0.015625 0  0.6953125 0.015625 0  0.703125 0.015625 0  0.7109375 0.015625 0  0.71875 0.015625 0  0.7265625 0.015625 0  0.734375 0.015625 0  0.7421875 0.015625 0  0.75 0.015625 0  0.7578125 0.015625 0  0.765625 0.015625 0  0.7734375 0.015625 0  0.78125 0.015625 0  0.7890625 0.015625 0  0.796875 0.015625 0  0.8046875 0.015625 0  0.8125 0.015625 0  0.8203125 0.015625 0  0.828125 0.015625 0  0.8359375 0.015625 0  0.84375 0.015625 0  0.8515625 0.015625 0  0.859375 0.015625 0  0.8671875 0.015625 0  0.875 0.015625 0  0.8828125 0.015625 0  0.890625 0.015625 0  0.8984375 0.015625 0  0.90625 0.015625 0  0.9140625 0.015625 0  0.921875 0.015625 0  0.9296875 0.015625 0  0.9375 0.015625 0  0.9453125 0.015625 0  0.953125 0.015625 0  0.9609375 0.015625 0  0.96875 0.015625 0  0.9765625 0.015625 0  0.984375 0.015625 0  0.9921875 0.015625 0  1 0.015625 0  0 0.0234375 0  0.0078125 0.0234375 0  0.015625 0.0234375 0  0.0234375 0.0234375 0  0.03125 0.0234375 0  0.0390625 0.0234375 0  0.046875 0.0234375 0  0.0546875 0.0234375 0  0.0625 0.0234375 0  0.0703125 0.0234375 0  0.078125 0.0234375 0  0.0859375 0.0234375 0  0.09375 0.0234375 0  0.1015625 0.0234375 0  0.109375 0.0234375 0  0.1171875 0.0234375 0  0.125 0.0234375 0  0.1328125 0.0234375 0  0.140625 0.0234375 0  0.1484375 0.0234375 0  0.15625 0.0234375 0  0.1640625 0.0234375 0  0.171875 0.0234375 0  0.1796875 0.0234375 0  0.1875 0.0234375 0  0.1953125 0.0234375 0  0.203125 0.0234375 0  0.2109375 0.0234375 0  0.21875 0.0234375 0  0.2265625 0.0234375 0  0.234375 0.0234375 0  0.2421875 0.0234375 0  0.25 0.0234375 0  0.2578125 0.0234375 0  0.265625 0.0234375 0  0.2734375 0.0234375 0  0.28125 0.0234375 0  0.2890625 0.0234375 0  0.296875 0.0234375 0  0.3046875 0.0234375 0  0.3125 0.0234375 0  0.3203125 0.0234375 0  0.328125 0.0234375 0  0.3359375 0.0234375 0  0.34375 0.0234375 0  0.3515625 0.0234375 0  0.359375 0.0234375 0  0.3671875 0.0234375 0  0.375 0.0234375 0  0.3828125 0.0234375 0  0.390625 0.0234375 0  0.3984375 0.0234375 0  0.40625 0.0234375 0  0.4140625 0.0234375 0  0.421875 0.0234375 0  0.4296875 0.0234375 0  0.4375 0.0234375 0  0.4453125 0.0234375 0  0.453125 0.0234375 0  0.4609375 0.0234375 0  0.46875 0.0234375 0  0.4765625 0.0234375 0  0.484375 0.0234375 0  0.4921875 0.0234375 0  0.5 0.0234375 0  0.5078125 0.0234375 0  0.515625 0.0234375 0  0.5234375 0.0234375 0  0.53125 0.0234375 0  0.5390625 0.0234375 0  0.546875 0.0234375 0  0.5546875 0.0234375 0  0.5625 0.0234375 0  0.5703125 0.0234375 0  0.578125 0.0234375 0  0.5859375 0.0234375 0  0.59375 0.0234375 0  0.6015625 0.0234375 0  0.609375 0.0234375 0  0.6171875 0.0234375 0  0.625 0.0234375 0  0.6328125 0.0234375 0  0.640625 0.0234375 0  0.6484375 0.0234375 0  0.65625 0.0234375 0  0.6640625 0.0234375 0  0.671875 0.0234375 0  0.6796875 0.0234375 0  0.6875 0.0234375 0  0.6953125 0.0234375 0  0.703125 0.0234375 0  0.7109375 0.0234375 0  0.71875 0.0234375 0  0.7265625 0.0234375 0  0.734375 0.0234375 0  0.7421875 0.0234375 0  0.75 0.0234375 0  0.7578125 0.0234375 0  0.765625 0.0234375 0  0.7734375 0.0234375 0  0.78125 0.0234375 0  0.7890625 0.0234375 0  0.796875 0.0234375 0  0.8046875 0.0234375 0  0.8125 0.0234375 0  0.8203125 0.0234375 0  0.828125 0.0234375 0  0.8359375 0.0234375 0  0.84375 0.0234375 0  0.8515625 0.0234375 0  0.859375 0.0234375 0  0.8671
[...]
<PointData  Scalars="f_22-1"> 
<DataArray  type="Float64"  Name="f_22-1"  format="ascii">7.2304663216768552e+02  7.2304783213337021e+02  7.2304882083633936e+02  7.2304748207311684e+02  7.2304370913377591e+02  7.2303770299597386e+02  7.2302975558349931e+02  7.2302018492757566e+02  7.2300929608873162e+02  7.2299737195188493e+02  7.2298467056401762e+02  7.2297142549246735e+02  7.2295784743605930e+02  7.2294412616739271e+02  7.2293043248291576e+02  7.2291692001936383e+02  7.2290372688865568e+02  7.2289097712577211e+02  7.2287878196145505e+02  7.2286724093817486e+02  7.2285644288911851e+02  7.2284646679900993e+02  7.2283738256364597e+02  7.2282925166292955e+02  7.2282212776004496e+02  7.2281605723761027e+02  7.2281107967988612e+02  7.2280722830878653e+02  7.2280453038016992e+02  7.2280300754588018e+02  7.2280267618616142e+02  7.2280354771633836e+02  7.2280562887104509e+02  7.2280892196879290e+02  7.2281342515923814e+02  7.2281913265514561e+02  7.2282603495075250e+02  7.2283411902799992e+02  7.2284336855185200e+02  7.2285376405579211e+02  7.2286528311838526e+02  7.2287790053176627e+02  7.2289158846255964e+02  7.2290631660625036e+02  7.2292205233486231e+02  7.2293876083912653e+02  7.2295640526509328e+02  7.2297494684573326e+02  7.2299434502784959e+02  7.2301455759461919e+02  7.2303554078405625e+02  7.2305724940367350e+02  7.2307963694162095e+02  7.2310265567453166e+02  7.2312625677234269e+02  7.2315039040032366e+02  7.2317500581854404e+02  7.2320005147902305e+02  7.2322547512078620e+02  7.2325122386306418e+02  7.2327724429686293e+02  7.2330348257513629e+02  7.2332988450179687e+02  7.2335639561978974e+02  7.2338296129847220e+02  7.2340952682051886e+02  7.2343603746860128e+02  7.2346243861206517e+02  7.2348867579384580e+02  7.2351469481784318e+02  7.2354044183701683e+02  7.2356586344239201e+02  7.2359090675325467e+02  7.2361551950873104e+02  7.2363965016100599e+02  7.2366324797039726e+02  7.2368626310252023e+02  7.2370864672778794e+02  7.2373035112345246e+02  7.2375132977845976e+02  7.2377153750132379e+02  7.2379093053128747e+02  7.2380946665302440e+02  7.2382710531513192e+02  7.2384380775270949e+02  7.2385953711430932e+02  7.2387425859357813e+02  7.2388793956593997e+02  7.2390054973069277e+02  7.2391206125894621e+02  7.2392244894786222e+02  7.2393169038172925e+02  7.2393976610049344e+02  7.2394665977639977e+02  7.2395235839958036e+02  7.2395685247347706e+02  7.2396013622118801e+02  7.2396220780398050e+02  7.2396306955342220e+02  7.2396272821885543e+02  7.2396119523221921e+02  7.2395848699259352e+02  7.2395462517326416e+02  7.2394963705463272e+02  7.2394355588687608e+02  7.2393642128703061e+02  7.2392827967601409e+02  7.2391918476216699e+02  7.2390919807911791e+02  7.2389838958723783e+02  7.2388683834969402e+02  7.2387463329603713e+02  7.2386187408852925e+02  7.2384867210867640e+02  7.2383515158367231e+02  7.2382145087384686e+02  7.2380772394157725e+02  7.2379414201665679e+02  7.2378089545778141e+02  7.2376819576952653e+02  7.2375627764368858e+02  7.2374540074813615e+02  7.2373585024077988e+02  7.2372793437517964e+02  7.2372197809614568e+02  7.2371826567334881e+02  7.2371705268681319e+02  7.2371806696140368e+02  7.2371913731853101e+02  7.2304543243416560e+02  7.2304663226776495e+02  7.2304684045899808e+02  7.2304526757285487e+02  7.2304178275505797e+02  7.2303640931037773e+02  7.2302933329515781e+02  7.2302078949117129e+02  7.2301102408230042e+02  7.2300027801835097e+02  7.2298877883647174e+02  7.2297673767385174e+02  7.2296434852578648e+02  7.2295178859782675e+02  7.2293921915965427e+02  7.2292678659124738e+02  7.2291462346894571e+02  7.2290284961619739e+02  7.2289157308485278e+02  7.2288089105447114e+02  7.2287089064822862e+02  7.2286164966953027e+02  7.2285323726587785e+02  7.2284571452741591e+02  7.2283913502750011e+02  7.2283354531222528e+02  7.2282898534519188e+02  7.2282548891310387e+02  7.2282308399711030e+02  7.2282179311416473e+02  7.2282163363211805e+02  7.2282261806173551e+02  7.2282475432839965e+02  7.2282804602586828e+02  7.2283249265413201e+02  7.2283808984310838e+02  7.2284482956370584e+02  7.2285270032753726e+02  7.2286168737641287e+02  7.2287177286258270e+02  7.2288293602056763e+02  7.2289515333132886e+02  7.2290839867933141e+02  7.2292264350331345e+02  7.2293785694080157e+02  7.2295400596732850e+02  7.2297105553041467e+02  7.2298896867877511e+02  7.2300770668709072e+02  7.2302722917661993e+02  7.2304749423195528e+02  7.2306845851417006e+02  7.2309007737062836e+02  7.2311230494168024e+02  7.2313509426449343e+02  7.2315839737424494e+02  7.2318216540288734e+02  7.2320634867573108e+02  7.2323089680604915e+02  7.2325575878792324e+02  7.2328088308755764e+02  7.2330621773327596e+02  7.2333171040441664e+02  7.2335730851934613e+02  7.2338295932282608e+02  7.2340860997291918e+02  7.2343420762769449e+02  7.2345969953192559e+02  7.2348503310401054e+02  7.2351015602333473e+02  7.2353501631829658e+02  7.2355956245521327e+02  7.2358374342832622e+02  7.2360750885113384e+02  7.2363080904925062e+02  7.2365359515503121e+02  7.2367581920417149e+02  7.2369743423450132e+02  7.2371839438719735e+02  7.2373865501064188e+02  7.2375817276714827e+02  7.2377690574279700e+02  7.2379481356062263e+02  7.2381185749739507e+02  7.2382800060428167e+02  7.2384320783164412e+02  7.2385744615830276e+02  7.2387068472557382e+02  7.2388289497645189e+02  7.2389405080033180e+02  7.2390412868371266e+02  7.2391310786738143e+02  7.2392097051064729e+02  7.2392770186325413e+02  7.2393329044572818e+02  7.2393772823897541e+02  7.2394101088413493e+02  7.2394313789379328e+02  7.2394411287587104e+02  7.2394394377170352e+02  7.2394264311007498e+02  7.2394022827925835e+02  7.2393672181945522e+02  7.2393215173841008e+02  7.2392655185342858e+02  7.2391996216355301e+02  7.2391242925622350e+02  7.2390400675341084e+02  7.2389475580291639e+02  7.2388474562124793e+02  7.2387405409519704e+02  7.2386276844973395e+02  7.2385098599000469e+02  7.2383881492450780e+02  7.2382637527431541e+02  7.2381379986803950e+02  7.2380123541157343e+02  7.2378884360095117e+02  7.2377680220648153e+02  7.2376530597948158e+02  7.2375456708694060e+02  7.2374481446847165e+02  7.2373629091620228e+02  7.2372924565555604e+02  7.2372391540670628e+02  7.2372048724903084e+02  7.2371901989735295e+02  7.2371913727014226e+02  7.2372020779622801e+02  7.2304444151007101e+02  7.2304642392230085e+02  7.2304663440679155e+02  7.2304508233488264e+02  7.2304180224295089e+02  7.2303685872094627e+02  7.2303040853677430e+02  7.2302263740018998e+02  7.2301374928552866e+02  7.2300394998295860e+02  7.2299343904003422e+02  7.2298240560264651e+02  7.2297102641418064e+02  7.2295946513713068e+02  7.2294787238599918e+02  7.2293638614133852e+02  7.2292513235312288e+02  7.2291422562292360e+02  7.2290376990286484e+02  7.2289385917743255e+02  7.2288457811070066e+02  7.2287600265114372e+02  7.2286820059173704e+02  7.2286123208613515e+02  7.2285515012333963e+02  7.2285000096406941e+02  7.2284582454227916e+02  7.2284265483528736e+02  7.2284052020577906e+02  7.2283944371868483e+02  7.2283944343568726e+02  7.2284053268976209e+02  7.2284272034194828e+02  7.2284601102221825e+02  7.2285040535614360e+02  7.2285590017880190e+02  7.2286248873720956e+02  7.2287016088239204e+02  7.2287890325206251e+02  7.2288869944476824e+02  7.2289953018623953e+02  7.2291137348861707e+02  7.2292420480303963e+02  7.2293799716640024e+02  7.2295272134215134e+02  7.2296834595624898e+02  7.2298483762810179e+02  7.2300216109707264e+02  7.2302027934479247e+02  7.2303915371357039e+02  7.2305874402116865e+02  7.2307900867218268e+02  7.2309990476628423e+02  7.2312138820352220e+02  7.2314341378694519e+02  7.2316593532271770e+02  7.2318890571797544e+02  7.2321227707661649e+02  7.2323600079322625e+02  7.2326002764536167e+02  7.2328430788438607e+02  7.2330879132506527e+02  7.2333342743413448e+02  7.2335816541803320e+02  7.2338295431002336e+02  7.2340774305689445e+02  7.2343248060546182e+02  7.2345711598906564e+02  7.2348159841427764e+02  7.2350587734802480e+02  7.2352990260533670e+02  7.2355362443791535e+02  7.2357699362374740e+02  7.2359996155795500e+02  7.2362248034508707e+02  7.2364450289307820e+02  7.2366598300904604e+02  7.2368687549717629e+02  7.2370713625886447e+02  7.2372672239536132e+02  7.2374559231311116e+02  7.2376370583201833e+02  7.2378102429686828e+02  7.2379751069213705e+02  7.2381312976044421e+02  7.2382784812491252e+02  7.2384163441570774e+02  7.2385445940108684e+02  7.2386629612326522e+02  7.2387712003948479e+02  7.2388690916868859e+02  7.2389564424424816e+02  7.2390330887327161e+02  7.2390988970305727e+02  7.2391537659535322e+02  7.2391976280918266e+02  7.2392304519307049e+02  7.2392522438767105e+02  7.2392630503990017e+02  7.2392629602987370e+02  7.2392521071211343e+02  7.2392306717271185e+02  7.2391988850437360e+02  7.2391570310151940e+02  7.2391054497792629e+02  7.2390445410966163e+02  7.2389747680638379e+02  7.2388966611435160e+02  7.2388108225466056e+02  7.2387179310030842e+02  7.2386187469543449e+02  7.2385141181935137e+02  7.2384049859644847e+02  7.2382923914998912e+02  7.2381774829244364e+02  7.2380615223544316e+02  7.2379458928601650e+02  7.2378321046748499e+02  7.2377217995454987e+02  7.2376167512839390e+02  7.2375188590832715e+02  7.2374301276397659e+02  7.2373526237433839e+02  7.2372883902720503e+02  7.2372392922966856e+02  7.2372067506448741e+02  7.2371913466278363e+02  7.2371925414515874e+02  7.2372122351938344e+02  7.2304577140987203e+02  7.2304799481384123e+02  7.2304819122287154e+02  7.2304664189063158e+02  7.2304347563330452e+02  7.2303881275189406e+02  7.2303279877406840e+02  7.2302559562527767e+02  7.2301737901961963e+02  7.2300832722277505e+02  7.2299861587378291e+02  7.2298841397828221e+02  7.2297788164921883e+02  7.2296716894397935e+02  7.2295641539457165e+02  7.2294574997481016e+02  7.2293529132667743e+02  7.2292514813363289e+02  7.2291541956987771e+02  7.2290619578142218e+02  7.2289755837211146e+02  7.2288958087878416e+02  7.2288232922675786e+02  7.2287586216120678e+02  7.2287023165276582e+02  7.2286548327729099e+02  7.2286165657073025e+02  7.2285878536054975e+02  7.2285689807540575e+02  7.2285601803485838e+02  7.2285616372086349e+02  7.2285734903271714e+02  7.2285958352699004e+02  7.2286287264386920e+02  7.2286721792118260e+02  7.2287261719724620e+02  7.2287906480356912e+02  7.2288655174830944e+02  7.2289506589130110e+02  7.2290459211136022e+02  7.2291511246650180e+02  7.2292660634765434e+02  7.2293905062627982e+02  7.2295241979661466e+02  7.2296668611244365e+02  7.2298181971933195e+02  7.2299778878224572e+02  7.2301455960903616e+02  7.2303209677001848e+02  7.2305036321391003e+02  7.2306932038038008e+02  7.2308892830942989e+02  7.2310914574782930e+02  7.2312993025281742e+02  7.2315123829328786e+02  7.2317302534862768e+02  7.2319524600545162e+02  7.2321785405238347e+02  7.2324080257311243e+02  7.2326404403789866e+02  7.2328753039372464e+02  7.2331121315329040e+02  7.2333504348303995e+02  7.2335897229040972e+02  7.2338295031050416e+02  7.2340692819237699e+02  7.2343085658512382e+02  7.2345468622397232e+02  7.2347836801657297e+02  7.2350185312967369e+02  7.2352509307637877e+02  7.2354803980418524e+02  7.2357064578398956e+02  7.2359286410025254e+02  7.2361464854252506e+02  7.2363595369851487e+02  7.2365673504889946e+02  7.2367694906407257e+02  7.2369655330301885e+02  7.2371550651452139e+02  7.2373376874089195e+02  7.2375130142444527e+02  7.2376806751691549e+02  7.2378403159203799e+02  7.2379915996154091e+02  7.2381342079476929e+02  7.2382678424221115e+02  7.2383922256321023e+02  7.2385071025816012e+02  7.2386122420550601e+02  7.2387074380393790e+02  7.2387925112014977e+02  7.2388673104264649e+02  7.2389317144207541e+02  7.2389856333866453e+02  7.2390290107740623e+02  7.2390618251168894e+02  7.2390840919621553e+02  7.2390958659010300e+02  7.2390972427120221e+02  7.2390883616279780e+02  7.2390694077397507e+02  7.2390406145508484e+02  7.2390022666987250e+02  7.2389547028596519e+02  7.2388983188550435e+02  7.2388335709774617e+02  7.2387609795537833e+02  7.2386811327610349e+02  7.2385946907047207e+02  7.2385023897605902e+02  7.2384050471641899e+02  7.2383035658054166e+02  7.2381989391416914e+02  7.2380922560725764e+02  7.2379847055078903e+02  7.2378775801849997e+02  7.2377722790157134e+02  7.2376703068121822e+02  7.2375732695818965e+02  7.2374828625784085e+02  7.2374008469641694e+02  7.2373290090183923e+02  7.2372690958164389e+02  7.2372227229571740e+02  7.2371912737934394e+02  7.2371758944792214e+02  7.2371778798810328e+02  7.2372001828031830e+02  7.2304952757218723e+02  7.2305147659549630e+02  7.2305147756242332e+02  7.2304981867172285e+02  7.2304665218334833e+02  7.2304212566205069e+02  7.2303638177292544e+02  7.2302956984807690e+02  7.2302184503680814e+02  7.2301336420660220e+02  7.2300428285929877e+02  7.2299475201462531e+02  7.2298491625644112e+02  7.2297491245498327e+02  7.2296486905957738e+02  7.2295490578892418e+02  7.2294513358916242e+02  7.2293565476684967e+02  7.2292656323096992e+02  7.2291794479898317e+02  7.2290987753672607e+02  7.2290243211225197e+02  7.2289567215078796e+02  7.2288965458280859e+02  7.2288442998044457e+02  7.2288004287963429e+02  7.2287653208682536e+02  7.2287393096994549e+02  7.2287226773395298e+02  7.2287156568160003e+02  7.2287184346024696e+02  7.2287311529564852e+02  7.2287539121364159e+02  7.2287867725067395e+02  7.2288297565404264e+02  7.2288828507265964e+02  7.2289460073911596e+02  7.2290191464372458e+02  7.2291021570117141e+02  7.2291948991035417e+02  7.2292972050790127e+02  7.2294088811587858e+02  7.2295297088397479e+02  7.2296594462686392e+02  7.2297978295654968e+02  7.2299445741055922e+02  7.2300993757595813e+02  7.2302619120951897e+02  7.2304318435431151e+02  7.2306088145292847e+02  7.2307924545757976e+02  7.2309823793724570e+02  7.2311781918210659e+02  7.2313794830543509e+02  7.2315858334312952e+02  7.2317968135110050e+02  7.2320119850066578e+02  7.2322309017214639e+02  7.2324531104685263e+02  7.2326781519761562e+02  7.2329055617807035e+02  7.2331348711085116e+02  7.2333656077488354e+02  7.2335972969196405e+02  7.2338294621278260e+02  7.2340616260259537e+02  7.2342933112671881e+02  7.2345240413601607e+02  7.2347533415257215e+02  7.2349807395572896e+02  7.2352057666866847e+02  7.2354279584571361e+02  7.2356468556053835e+02  7.2358620049545925e+02  7.2360729603199388e+02  7.2362792834285335e+02  7.2364805448556831e+02  7.2366763249790392e+02  7.2368662149527188e+02  7.2370498177029333e+02  7.2372267489472472e+02  7.2373966382391677e+02  7.2375591300401356e+02  7.2377138848207676e+02  7.2378605801936874e+02  7.2379989120798450e+02  7.2381285959108448e+02  7.2382493678697472e+02  7.2383609861728871e+02  7.2384632323957260e+02  7.2385559128458033e+02  7.2386388599862983e+02  7.2387119339139440e+02  7.2387750238955482e+02  7.2388280499677887e+02  7.2388709646054167e+02  7.2389037544636051e+02  7.2389264422008216e+02  7.2389390883892281e+02  7.2389417935201482e+02  7.2389347001131352e+02  7.2389179949373374e+02  7.2388919113546956e+02  7.2388567317945137e+02  7.2388127903688905e+02  7.2387604756375515e+02  7.2387002335290106e+02  7.2386325704212493e+02  7.2385580563799283e+02  7.2384773285426479e+02  7.2383910946238939e+02  7.2383001364935217e+02  7.2382053137491619e+02  7.2381075671542226e+02  7.2380079217412799e+02  7.2379074892753272e+02  7.2378074696189708e+02  7.2377091503257816e+02  7.2376139034910443e+02  7.2375231785125811e+02  7.2374384889841394e+02  7.2373613917127034e+02  7.2372934561440002e+02  7.2372362257147438e+02  7.2371911786087526e+02  7.2371597241646680e+02  7.2371432893480505e+02  7.2371436187267921e+02  7.2371632127422367e+02  7.2305551352904649e+02  7.2305685091670489e+02  7.2305643374462068e+02  7.2305449712439952e+02  7.2305118901995388e+02  7.2304665592918445e+02  7.2304103286916177e+02  7.2303445680787161e+02  7.2302706624769428e+02  7.2301900054795999e+02  7.2301039791856522e+02  7.2300139339473390e+02  7.2299211727274439e+02  7.2298269391709562e+02  7.2297324098560034e+02  7.2296386896970409e+02  7.2295468097706873e+02  7.2294577268882472e+02  7.2293723243837383e+02  7.2292914137196078e+02  7.2292157366186177e+02  7.2291459675137867e+02  7.2290827161704306e+02  7.2290265303797935e+02  7.2289778986563113e+02  7.2289372528940942e+02  7.2289049709544133e+02  7.2288813791676694e+02  7.2288667547409113e+02  7.2288613280676020e+02  7.2288652849396874e+02  7.2288787686643218e+02  7.2289018820891613e+02  7.2289346895406027e+02  7.2289772186801770e+02  7.2290294622837564e+02  7.2290913799489419e+02  7.2291628997350051e+02  7.2292439197400313e+02  7.2293343096194678e+02  7.2294339120497557e+02  7.2295425441410828e+02  7.2296599988011758e+02  7.2297860460568984e+02  7.2299204343295821e+02  7.2300628916746916e+02  7.2302131269825577e+02  7.2303708311447133e+02  7.2305356781875400e+02  7.2307073263752545e+02  7.2308854192841784e+02  7.2310695868500250e+02  7.2312594463901951e+02  7.2314546036026195e+02  7.2316546535429723e+02  7.2318591815819138e+02  7.2320677643440104e+02  7.2322799706300066e+02  7.2324953623241083e+02  7.2327134952879135e+02  7.2329339202426399e+02  7.2331561836413368e+02  7.2333798285327066e+02  7.2336043954182537e+02  7.2338294231043642e+02  7.2340544495510551e+02  7.2342790127190801e+02  7.2345026514169808e+02  7.2347249061498849e+02  7.2349453199716845e+02  7.2351634393421841e+02  7.2353788149910815e+02  7.2355910027902632e+02  7.2357995646361928e+02  7.2360040693439896e+02  7.2362040935549135e+02  7.2363992226588414e+02  7.2365890517334105e+02  7.2367731865015651e+02  7.2369512443089980e+02  7.2371228551233992e+02  7.2372876625569984e+02  7.2374453249143323e+02  7.2375955162669118e+02  7.2377379275566295e+02  7.2378722677300289e+02  7.2379982649050930e+02  7.2381156675730983e+02  7.2382242458374401e+02  7.2383237926921538e+02  7.2384141253425048e+02  7.2384950865706185e+02  7.2385665461491237e+02  7.2386284023062410e+02  7.2386805832457401e+02  7.2387230487258341e+02  7.2387557917012316e+02  7.2387788400327031e+02  7.2387922582691795e+02  7.2387961495072454e+02  7.2387906573332623e+02  7.2387759678530017e+02  7.2387523118137665e+02  7.2387199668226651e+02  7.2386792596638122e+02  7.2386305687147160e+02  7.2385743264586779e+02  7.2385110220847412e+02  7.2384412041587677e+02  7.2383654833379001e+02  7.2382845350838988e+02  7.2381991023077251e+02  7.2381099978441921e+02  7.2380181066096020e+02  7.2379243872315749e+02  7.2378298728546383e+02  7.2377356707133652e+02  7.2376429599265748e+02  7.2375529868121680e+02  7.2374670568967019e+02  7.2373865227830447e+02  7.2373127674609964e+02  7.2372471837190801e+02  7.2371911540149028e+02  7.2371460389371055e+02  7.2371132008231814e+02  7.2370940644745883e+02  7.2370902984007091e+02  7.2371038392934224e+02  7.2306344790224409e+02  7.2306394124496342e+02  7.2306291174020373e+02  7.2306053987244434e+02  7.2305695129869036e+02  7.2305227636662255e+02  7.2304663767188686e+02  7.2304015855323337e+02  7.2303296251122902e+02  7.2302517340412419e+02  7.2301691415790356e+02  7.2300830545364931e+02  7.2299946446278921e+02  7.2299050380999518e+02  7.2298153080722250e+02  7.2297264692455724e+02  7.2296394746504654e+02  7.2295552139883364e+02  7.2294745131825539e+02  7.2293981348162856e+02  7.2293267792018446e+02  7.2292610858854403e+02  7.2292016354400971e+02  7.2291489514384898e+02  7.2291035025266922e+02  7.2290657045429202e+02  7.2290359226416024e+02  7.2290144733958994e+02  7.2290016268604143e+02  7.2289976085827254e+02  7.2290026015568060e+02  7.2290167481148546e+02  7.2290401517561554e+02  7.2290728789135312e+02  7.2291149606584133e+02  7.2291663943468961e+02  7.2292271452089449e+02  7.2292971478834579e+02  7.2293763079018254e+02  7.2294645031227890e+02  7.2295615851209459e+02  7.2296673805318494e+02  7.2297816923549010e+02  7.2299043012194966e+02  7.2300349666107570e+02  7.2301734280634616e+02  7.2303194063216063e+02  7.2304726044672032e+02  7.2306327090196305e+02  7.2307993910074470e+02  7.2309723070141104e+02  7.2311511001992881e+02  7.2313354012973650e+02  7.2315248295945651e+02  7.2317189938862509e+02  7.2319174934159