<?xml version="1.0"?>
<VTKFile type="UnstructuredGrid"  version="0.1"  >
<UnstructuredGrid>
<Piece  NumberOfPoints="16641" NumberOfCells="32768">
<Points>
<DataArray  type="Float64"  NumberOfComponents="3"  format="ascii">0 0 0  0.0078125 0 0  0.015625 0 0  0.0234375 0 0  0.03125 0 0  0.0390625 0 0  0.046875 0 0  0.0546875 0 0  0.0625 0 0  0.0703125 0 0  0.078125 0 0  0.0859375 0 0  0.09375 0 0  0.1015625 0 0  0.109375 0 0  0.1171875 0 0  0.125 0 0  0.1328125 0 0  0.140625 0 0  0.1484375 0 0  0.15625 0 0  0.1640625 0 0  0.171875 0 0  0.1796875 0 0  0.1875 0 0  0.1953125 0 0  0.203125 0 0  0.2109375 0 0  0.21875 0 0  0.2265625 0 0  0.234375 0 0  0.2421875 0 0  0.25 0 0  0.2578125 0 0  0.265625 0 0  0.2734375 0 0  0.28125 0 0  0.2890625 0 0  0.296875 0 0  0.3046875 0 0  0.3125 0 0  0.3203125 0 0  0.328125 0 0  0.3359375 0 0  0.34375 0 0  0.3515625 0 0  0.359375 0 0  0.3671875 0 0  0.375 0 0  0.3828125 0 0  0.390625 0 0  0.3984375 0 0  0.40625 0 0  0.4140625 0 0  0.421875 0 0  0.4296875 0 0  0.4375 0 0  0.4453125 0 0  0.453125 0 0  0.4609375 0 0  0.46875 0 0  0.4765625 0 0  0.484375 0 0  0.4921875 0 0  0.5 0 0  0.5078125 0 0  0.515625 0 0  0.5234375 0 0  0.53125 0 0  0.5390625 0 0  0.546875 0 0  0.5546875 0 0  0.5625 0 0  0.5703125 0 0  0.578125 0 0  0.5859375 0 0  0.59375 0 0  0.6015625 0 0  0.609375 0 0  0.6171875 0 0  0.625 0 0  0.6328125 0 0  0.640625 0 0  0.6484375 0 0  0.65625 0 0  0.6640625 0 0  0.671875 0 0  0.6796875 0 0  0.6875 0 0  0.6953125 0 0  0.703125 0 0  0.7109375 0 0  0.71875 0 0  0.7265625 0 0  0.734375 0 0  0.7421875 0 0  0.75 0 0  0.7578125 0 0  0.765625 0 0  0.7734375 0 0  0.78125 0 0  0.7890625 0 0  0.796875 0 0  0.8046875 0 0  0.8125 0 0  0.8203125 0 0  0.828125 0 0  0.8359375 0 0  0.84375 0 0  0.8515625 0 0  0.859375 0 0  0.8671875 0 0  0.875 0 0  0.8828125 0 0  0.890625 0 0  0.8984375 0 0  0.90625 0 0  0.9140625 0 0  0.921875 0 0  0.9296875 0 0  0.9375 0 0  0.9453125 0 0  0.953125 0 0  0.9609375 0 0  0.96875 0 0  0.9765625 0 0  0.984375 0 0  0.9921875 0 0  1 0 0  0 0.0078125 0  0.0078125 0.0078125 0  0.015625 0.0078125 0  0.0234375 0.0078125 0  0.03125 0.0078125 0  0.0390625 0.0078125 0  0.046875 0.0078125 0  0.0546875 0.0078125 0  0.0625 0.0078125 0  0.0703125 0.0078125 0  0.078125 0.0078125 0  0.0859375 0.0078125 0  0.09375 0.0078125 0  0.1015625 0.0078125 0  0.109375 0.0078125 0  0.1171875 0.0078125 0  0.125 0.0078125 0  0.1328125 0.0078125 0  0.140625 0.0078125 0  0.1484375 0.0078125 0  0.15625 0.0078125 0  0.1640625 0.0078125 0  0.171875 0.0078125 0  0.1796875 0.0078125 0  0.1875 0.0078125 0  0.1953125 0.0078125 0  0.203125 0.0078125 0  0.2109375 0.0078125 0  0.21875 0.0078125 0  0.2265625 0.0078125 0  0.234375 0.0078125 0  0.2421875 0.0078125 0  0.25 0.0078125 0  0.2578125 0.0078125 0  0.265625 0.0078125 0  0.2734375 0.0078125 0  0.28125 0.0078125 0  0.2890625 0.0078125 0  0.296875 0.0078125 0  0.3046875 0.0078125 0  0.3125 0.0078125 0  0.3203125 0.0078125 0  0.328125 0.0078125 0  0.3359375 0.0078125 0  0.34375 0.0078125 0  0.3515625 0.0078125 0  0.359375 0.0078125 0  0.3671875 0.0078125 0  0.375 0.0078125 0  0.3828125 0.0078125 0  0.390625 0.0078125 0  0.3984375 0.0078125 0  0.40625 0.0078125 0  0.4140625 0.0078125 0  0.421875 0.0078125 0  0.4296875 0.0078125 0  0.4375 0.0078125 0  0.4453125 0.0078125 0  0.453125 0.0078125 0  0.4609375 0.0078125 0  0.46875 0.0078125 0  0.4765625 0.0078125 0  0.484375 0.0078125 0  0.4921875 0.0078125 0  0.5 0.0078125 0  0.5078125 0.0078125 0  0.515625 0.0078125 0  0.5234375 0.0078125 0  0.53125 0.0078125 0  0.5390625 0.0078125 0  0.546875 0.0078125 0  0.5546875 0.0078125 0  0.5625 0.0078125 0  0.5703125 0.0078125 0  0.578125 0.0078125 0  0.5859375 0.0078125 0  0.59375 0.0078125 0  0.6015625 0.0078125 0  0.609375 0.0078125 0  0.6171875 0.0078125 0  0.625 0.0078125 0  0.6328125 0.0078125 0  0.640625 0.0078125 0  0.6484375 0.0078125 0  0.65625 0.0078125 0  0.6640625 0.0078125 0  0.671875 0.0078125 0  0.6796875 0.0078125 0  0.6875 0.0078125 0  0.6953125 0.0078125 0  0.703125 0.0078125 0  0.7109375 0.0078125 0  0.71875 0.0078125 0  0.7265625 0.0078125 0  0.734375 0.0078125 0  0.7421875 0.0078125 0  0.75 0.0078125 0  0.7578125 0.0078125 0  0.765625 0.0078125 0  0.7734375 0.0078125 0  0.78125 0.0078125 0  0.7890625 0.0078125 0  0.796875 0.0078125 0  0.8046875 0.0078125 0  0.8125 0.0078125 0  0.8203125 0.0078125 0  0.828125 0.0078125 0  0.8359375 0.0078125 0  0.84375 0.0078125 0  0.8515625 0.0078125 0  0.859375 0.0078125 0  0.8671875 0.0078125 0  0.875 0.0078125 0  0.8828125 0.0078125 0  0.890625 0.0078125 0  0.8984375 0.0078125 0  0.90625 0.0078125 0  0.9140625 0.0078125 0  0.921875 0.0078125 0  0.9296875 0.0078125 0  0.9375 0.0078125 0  0.9453125 0.0078125 0  0.953125 0.0078125 0  0.9609375 0.0078125 0  0.96875 0.0078125 0  0.9765625 0.0078125 0  0.984375 0.0078125 0  0.9921875 0.0078125 0  1 0.0078125 0  0 0.015625 0  0.0078125 0.015625 0  0.015625 0.015625 0  0.0234375 0.015625 0  0.03125 0.015625 0  0.0390625 0.015625 0  0.046875 0.015625 0  0.0546875 0.015625 0  0.0625 0.015625 0  0.0703125 0.015625 0  0.078125 0.015625 0  0.0859375 0.015625 0  0.09375 0.015625 0  0.1015625 0.015625 0  0.109375 0.015625 0  0.1171875 0.015625 0  0.125 0.015625 0  0.1328125 0.015625 0  0.140625 0.015625 0  0.1484375 0.015625 0  0.15625 0.015625 0  0.1640625 0.015625 0  0.171875 0.015625 0  0.1796875 0.015625 0  0.1875 0.015625 0  0.1953125 0.015625 0  0.203125 0.015625 0  0.2109375 0.015625 0  0.21875 0.015625 0  0.2265625 0.015625 0  0.234375 0.015625 0  0.2421875 0.015625 0  0.25 0.015625 0  0.2578125 0.015625 0  0.265625 0.015625 0  0.2734375 0.015625 0  0.28125 0.015625 0  0.2890625 0.015625 0  0.296875 0.015625 0  0.3046875 0.015625 0  0.3125 0.015625 0  0.3203125 0.015625 0  0.328125 0.015625 0  0.3359375 0.015625 0  0.34375 0.015625 0  0.3515625 0.015625 0  0.359375 0.015625 0  0.3671875 0.015625 0  0.375 0.015625 0  0.3828125 0.015625 0  0.390625 0.015625 0  0.3984375 0.015625 0  0.40625 0.015625 0  0.4140625 0.015625 0  0.421875 0.015625 0  0.4296875 0.015625 0  0.4375 0.015625 0  0.4453125 0.015625 0  0.453125 0.015625 0  0.4609375 0.015625 0  0.46875 0.015625 0  0.4765625 0.015625 0  0.484375 0.015625 0  0.4921875 0.015625 0  0.5 0.015625 0  0.5078125 0.015625 0  0.515625 0.015625 0  0.5234375 0.015625 0  0.53125 0.015625 0  0.5390625 0.015625 0  0.546875 0.015625 0  0.5546875 0.015625 0  0.5625 0.015625 0  0.5703125 0.015625 0  0.578125 0.015625 0  0.5859375 0.015625 0  0.59375 0.015625 0  0.6015625 0.015625 0  0.609375 0.015625 0  0.6171875 0.015625 0  0.625 0.015625 0  0.6328125 0.015625 0  0.640625 0.015625 0  0.6484375 0.015625 0  0.65625 0.015625 0  0.6640625 0.015625 0  0.671875 0.015625 0  0.6796875 0.015625 0  0.6875 0.015625 0  0.6953125 0.015625 0  0.703125 0.015625 0  0.7109375 0.015625 0  0.71875 0.015625 0  0.7265625 0.015625 0  0.734375 0.015625 0  0.7421875 0.015625 0  0.75 0.015625 0  0.7578125 0.015625 0  0.765625 0.015625 0  0.7734375 0.015625 0  0.78125 0.015625 0  0.7890625 0.015625 0  0.796875 0.015625 0  0.8046875 0.015625 0  0.8125 0.015625 0  0.8203125 0.015625 0  0.828125 0.015625 0  0.8359375 0.015625 0  0.84375 0.015625 0  0.8515625 0.015625 0  0.859375 0.015625 0  0.8671875 0.015625 0  0.875 0.015625 0  0.8828125 0.015625 0  0.890625 0.015625 0  0.8984375 0.015625 0  0.90625 0.015625 0  0.9140625 0.015625 0  0.921875 0.015625 0  0.9296875 0.015625 0  0.9375 0.015625 0  0.9453125 0.015625 0  0.953125 0.015625 0  0.9609375 0.015625 0  0.96875 0.015625 0  0.9765625 0.015625 0  0.984375 0.015625 0  0.9921875 0.015625 0  1 0.015625 0  0 0.0234375 0  0.0078125 0.0234375 0  0.015625 0.0234375 0  0.0234375 0.0234375 0  0.03125 0.0234375 0  0.0390625 0.0234375 0  0.046875 0.0234375 0  0.0546875 0.0234375 0  0.0625 0.0234375 0  0.0703125 0.0234375 0  0.078125 0.0234375 0  0.0859375 0.0234375 0  0.09375 0.0234375 0  0.1015625 0.0234375 0  0.109375 0.0234375 0  0.1171875 0.0234375 0  0.125 0.0234375 0  0.1328125 0.0234375 0  0.140625 0.0234375 0  0.1484375 0.0234375 0  0.15625 0.0234375 0  0.1640625 0.0234375 0  0.171875 0.0234375 0  0.1796875 0.0234375 0  0.1875 0.0234375 0  0.1953125 0.0234375 0  0.203125 0.0234375 0  0.2109375 0.0234375 0  0.21875 0.0234375 0  0.2265625 0.0234375 0  0.234375 0.0234375 0  0.2421875 0.0234375 0  0.25 0.0234375 0  0.2578125 0.0234375 0  0.265625 0.0234375 0  0.2734375 0.0234375 0  0.28125 0.0234375 0  0.2890625 0.0234375 0  0.296875 0.0234375 0  0.3046875 0.0234375 0  0.3125 0.0234375 0  0.3203125 0.0234375 0  0.328125 0.0234375 0  0.3359375 0.0234375 0  0.34375 0.0234375 0  0.3515625 0.0234375 0  0.359375 0.0234375 0  0.3671875 0.0234375 0  0.375 0.0234375 0  0.3828125 0.0234375 0  0.390625 0.0234375 0  0.3984375 0.0234375 0  0.40625 0.0234375 0  0.4140625 0.0234375 0  0.421875 0.0234375 0  0.4296875 0.0234375 0  0.4375 0.0234375 0  0.4453125 0.0234375 0  0.453125 0.0234375 0  0.4609375 0.0234375 0  0.46875 0.0234375 0  0.4765625 0.0234375 0  0.484375 0.0234375 0  0.4921875 0.0234375 0  0.5 0.0234375 0  0.5078125 0.0234375 0  0.515625 0.0234375 0  0.5234375 0.0234375 0  0.53125 0.0234375 0  0.5390625 0.0234375 0  0.546875 0.0234375 0  0.5546875 0.0234375 0  0.5625 0.0234375 0  0.5703125 0.0234375 0  0.578125 0.0234375 0  0.5859375 0.0234375 0  0.59375 0.0234375 0  0.6015625 0.0234375 0  0.609375 0.0234375 0  0.6171875 0.0234375 0  0.625 0.0234375 0  0.6328125 0.0234375 0  0.640625 0.0234375 0  0.6484375 0.0234375 0  0.65625 0.0234375 0  0.6640625 0.0234375 0  0.671875 0.0234375 0  0.6796875 0.0234375 0  0.6875 0.0234375 0  0.6953125 0.0234375 0  0.703125 0.0234375 0  0.7109375 0.0234375 0  0.71875 0.0234375 0  0.7265625 0.0234375 0  0.734375 0.0234375 0  0.7421875 0.0234375 0  0.75 0.0234375 0  0.7578125 0.0234375 0  0.765625 0.0234375 0  0.7734375 0.0234375 0  0.78125 0.0234375 0  0.7890625 0.0234375 0  0.796875 0.0234375 0  0.8046875 0.0234375 0  0.8125 0.0234375 0  0.8203125 0.0234375 0  0.828125 0.0234375 0  0.8359375 0.0234375 0  0.84375 0.0234375 0  0.8515625 0.0234375 0  0.859375 0.0234375 0  0.8671
[...]
<PointData  Vectors="f_22-0"> 
<DataArray  type="Float64"  Name="f_22-0"  NumberOfComponents="3" format="ascii">-3.6984124042444335e-17 0.0000000000000000e+00 0.0000000000000000e+00  0.0000000000000000e+00 4.0651552246369146e-16 0.0000000000000000e+00  0.0000000000000000e+00 -4.9056795211420952e-16 0.0000000000000000e+00  0.0000000000000000e+00 -2.8344196908257894e-16 0.0000000000000000e+00  0.0000000000000000e+00 3.0021716819856152e-16 0.0000000000000000e+00  0.0000000000000000e+00 -3.2383140884276089e-16 0.0000000000000000e+00  0.0000000000000000e+00 1.7372282474348013e-16 0.0000000000000000e+00  0.0000000000000000e+00 -1.0111830072454847e-16 0.0000000000000000e+00  0.0000000000000000e+00 3.6180915986804823e-16 0.0000000000000000e+00  0.0000000000000000e+00 -6.9891501123161307e-16 0.0000000000000000e+00  0.0000000000000000e+00 -3.1431539281881102e-16 0.0000000000000000e+00  0.0000000000000000e+00 1.6302025786196217e-15 0.0000000000000000e+00  0.0000000000000000e+00 6.4814515543250066e-16 0.0000000000000000e+00  0.0000000000000000e+00 -1.7936871500285440e-16 0.0000000000000000e+00  0.0000000000000000e+00 -2.4851881223651470e-16 0.0000000000000000e+00  0.0000000000000000e+00 1.5371850134245981e-16 0.0000000000000000e+00  0.0000000000000000e+00 -3.1791642489296681e-16 0.0000000000000000e+00  0.0000000000000000e+00 3.9602467646689999e-16 0.0000000000000000e+00  0.0000000000000000e+00 -8.9249745805201989e-16 0.0000000000000000e+00  0.0000000000000000e+00 -7.8169178447235802e-16 0.0000000000000000e+00  0.0000000000000000e+00 6.4891181858822504e-16 0.0000000000000000e+00  0.0000000000000000e+00 1.4555836211146490e-15 0.0000000000000000e+00  0.0000000000000000e+00 7.4448577384223694e-16 0.0000000000000000e+00  0.0000000000000000e+00 -1.1697959674099201e-16 0.0000000000000000e+00  0.0000000000000000e+00 5.1417203827952514e-17 0.0000000000000000e+00  0.0000000000000000e+00 -5.8668517198850294e-16 0.0000000000000000e+00  0.0000000000000000e+00 1.0365692044549013e-16 0.0000000000000000e+00  0.0000000000000000e+00 2.0146486105393065e-17 0.0000000000000000e+00  0.0000000000000000e+00 4.6418153873474185e-16 0.0000000000000000e+00  0.0000000000000000e+00 9.2901296411804477e-16 0.0000000000000000e+00  0.0000000000000000e+00 -1.5046500630810096e-15 0.0000000000000000e+00  0.0000000000000000e+00 -1.6653345369377333e-16 0.0000000000000000e+00  0.0000000000000000e+00 5.4152377951773529e-16 0.0000000000000000e+00  0.0000000000000000e+00 2.3841193247251570e-16 0.0000000000000000e+00  0.0000000000000000e+00 -2.6799637204543964e-16 0.0000000000000000e+00  0.0000000000000000e+00 4.7441725344957862e-16 0.0000000000000000e+00  0.0000000000000000e+00 1.0869354197183840e-16 0.0000000000000000e+00  0.0000000000000000e+00 -7.2754810306411414e-16 0.0000000000000000e+00  0.0000000000000000e+00 -9.0886647801265167e-16 0.0000000000000000e+00  0.0000000000000000e+00 -6.4436261204829756e-16 0.0000000000000000e+00  0.0000000000000000e+00 7.3307213957688322e-16 0.0000000000000000e+00  0.0000000000000000e+00 3.0544672482370133e-16 0.0000000000000000e+00  0.0000000000000000e+00 -3.0122246160805440e-15 0.0000000000000000e+00  0.0000000000000000e+00 1.7273987118753151e-15 0.0000000000000000e+00  0.0000000000000000e+00 2.9277266586690004e-17 0.0000000000000000e+00  0.0000000000000000e+00 1.6312154878882773e-16 0.0000000000000000e+00  0.0000000000000000e+00 2.1446259402515201e-17 0.0000000000000000e+00  0.0000000000000000e+00 5.0073766271630187e-16 0.0000000000000000e+00  0.0000000000000000e+00 -1.7904377167857386e-16 0.0000000000000000e+00  0.0000000000000000e+00 5.5922746108679787e-16 0.0000000000000000e+00  0.0000000000000000e+00 6.4306283875117542e-16 0.0000000000000000e+00  0.0000000000000000e+00 -1.2721531145582880e-15 0.0000000000000000e+00  0.0000000000000000e+00 -6.5281113847959144e-16 0.0000000000000000e+00  0.0000000000000000e+00 -1.4079248437835506e-16 0.0000000000000000e+00  0.0000000000000000e+00 1.9254795928412307e-16 0.0000000000000000e+00  0.0000000000000000e+00 5.1081090576899842e-16 0.0000000000000000e+00  0.0000000000000000e+00 7.4996919243947088e-16 0.0000000000000000e+00  0.0000000000000000e+00 -6.2389118261862400e-17 0.0000000000000000e+00  0.0000000000000000e+00 7.0837644693156269e-17 0.0000000000000000e+00  0.0000000000000000e+00 -4.6661861366684591e-16 0.0000000000000000e+00  0.0000000000000000e+00 -3.9838051556793388e-16 0.0000000000000000e+00  0.0000000000000000e+00 8.9846829163567459e-16 0.0000000000000000e+00  0.0000000000000000e+00 -1.0144730584038251e-15 0.0000000000000000e+00  0.0000000000000000e+00 -1.0007480902144202e-16 0.0000000000000000e+00  0.0000000000000000e+00 -2.8112896918933600e-16 0.0000000000000000e+00  0.0000000000000000e+00 -5.5922746108679787e-16 0.0000000000000000e+00  0.0000000000000000e+00 4.6791838696396797e-17 0.0000000000000000e+00  0.0000000000000000e+00 -3.9448119567656748e-16 0.0000000000000000e+00  0.0000000000000000e+00 5.7190025073373870e-16 0.0000000000000000e+00  0.0000000000000000e+00 -1.5122862312016021e-15 0.0000000000000000e+00  0.0000000000000000e+00 -6.5671045837095785e-16 0.0000000000000000e+00  0.0000000000000000e+00 -3.7758414281397971e-16 0.0000000000000000e+00  0.0000000000000000e+00 9.1049119463405444e-16 0.0000000000000000e+00  0.0000000000000000e+00 1.1271700036755885e-15 0.0000000000000000e+00  0.0000000000000000e+00 -1.7443808084985544e-16 0.0000000000000000e+00  0.0000000000000000e+00 4.4029820440012266e-16 0.0000000000000000e+00  0.0000000000000000e+00 -2.4533220983180266e-16 0.0000000000000000e+00  0.0000000000000000e+00 1.2237365592404885e-15 0.0000000000000000e+00  0.0000000000000000e+00 -9.4558507365635195e-17 0.0000000000000000e+00  0.0000000000000000e+00 7.4639481587238511e-16 0.0000000000000000e+00  0.0000000000000000e+00 1.4645195625323637e-15 0.0000000000000000e+00  0.0000000000000000e+00 6.1056850632312213e-16 0.0000000000000000e+00  0.0000000000000000e+00 7.2234900987562560e-16 0.0000000000000000e+00  0.0000000000000000e+00 2.5995465942442667e-17 0.0000000000000000e+00  0.0000000000000000e+00 -4.1326253902702416e-16 0.0000000000000000e+00  0.0000000000000000e+00 -4.0975353191775252e-16 0.0000000000000000e+00  0.0000000000000000e+00 5.8424809705639889e-16 0.0000000000000000e+00  0.0000000000000000e+00 8.9034470852866134e-16 0.0000000000000000e+00  0.0000000000000000e+00 -6.2746555918570990e-16 0.0000000000000000e+00  0.0000000000000000e+00 -5.3290705182007463e-16 0.0000000000000000e+00  0.0000000000000000e+00 2.7798901392199627e-16 0.0000000000000000e+00  0.0000000000000000e+00 -2.7100273244996479e-16 0.0000000000000000e+00  0.0000000000000000e+00 -5.0171249268914347e-16 0.0000000000000000e+00  0.0000000000000000e+00 -1.0398186376977067e-17 0.0000000000000000e+00  0.0000000000000000e+00 3.3862140733696702e-16 0.0000000000000000e+00  0.0000000000000000e+00 -2.7636429730059360e-16 0.0000000000000000e+00  0.0000000000000000e+00 -1.2055397330807786e-16 0.0000000000000000e+00  0.0000000000000000e+00 1.9529093789260053e-16 0.0000000000000000e+00  0.0000000000000000e+00 -7.3014764965835841e-16 0.0000000000000000e+00  0.0000000000000000e+00 -2.6060454607298775e-16 0.0000000000000000e+00  0.0000000000000000e+00 -1.1410384832110928e-15 0.0000000000000000e+00  0.0000000000000000e+00 7.0707667363444051e-16 0.0000000000000000e+00  0.0000000000000000e+00 -1.3304398233511087e-16 0.0000000000000000e+00  0.0000000000000000e+00 2.8192641310917676e-17 0.0000000000000000e+00  0.0000000000000000e+00 -2.3546967221594427e-16 0.0000000000000000e+00  0.0000000000000000e+00 -7.7571968157884270e-17 0.0000000000000000e+00  0.0000000000000000e+00 2.0939804768187337e-17 0.0000000000000000e+00  0.0000000000000000e+00 -1.8643623230595599e-17 0.0000000000000000e+00  0.0000000000000000e+00 3.3340962104987376e-17 0.0000000000000000e+00  0.0000000000000000e+00 1.4661163543368360e-17 0.0000000000000000e+00  0.0000000000000000e+00 -2.7778275106966975e-16 0.0000000000000000e+00  0.0000000000000000e+00 -1.3974339977867594e-16 0.0000000000000000e+00  0.0000000000000000e+00 -9.9291763835330934e-17 0.0000000000000000e+00  0.0000000000000000e+00 2.4667164906206452e-16 0.0000000000000000e+00  0.0000000000000000e+00 2.4725807021760206e-16 0.0000000000000000e+00  0.0000000000000000e+00 -2.3820328966420080e-16 0.0000000000000000e+00  0.0000000000000000e+00 2.6321678576583670e-17 0.0000000000000000e+00  0.0000000000000000e+00 -3.7659630241506833e-18 0.0000000000000000e+00  0.0000000000000000e+00 -1.5937930599269458e-17 0.0000000000000000e+00  0.0000000000000000e+00 1.3942670696848845e-16 0.0000000000000000e+00  0.0000000000000000e+00 1.3099658553017141e-16 0.0000000000000000e+00  0.0000000000000000e+00 1.4980680567995380e-16 0.0000000000000000e+00  0.0000000000000000e+00 2.2323955438284269e-16 0.0000000000000000e+00  0.0000000000000000e+00 -3.1688320666654355e-18 0.0000000000000000e+00  0.0000000000000000e+00 -1.4289573081715525e-16 0.0000000000000000e+00  0.0000000000000000e+00 -4.2490782234191379e-17 0.0000000000000000e+00  0.0000000000000000e+00 -7.0268993875665335e-17 0.0000000000000000e+00  0.0000000000000000e+00 1.0073988772239567e-16 0.0000000000000000e+00  0.0000000000000000e+00 0.0000000000000000e+00 0.0000000000000000e+00  5.2296949627476164e-16 0.0000000000000000e+00 0.0000000000000000e+00  5.2123397257649115e-06 -5.2123511297040126e-06 0.0000000000000000e+00  1.8652004176645856e-05 -9.1291653537936103e-06 0.0000000000000000e+00  3.6114760947961672e-05 -1.0090065985796466e-05 0.0000000000000000e+00  5.3017621965399415e-05 -8.9073184717281095e-06 0.0000000000000000e+00  6.6140896728657733e-05 -6.2719611046854129e-06 0.0000000000000000e+00  7.3226648740782929e-05 -2.6842885445239003e-06 0.0000000000000000e+00  7.2782516510333170e-05 1.5095234629104195e-06 0.0000000000000000e+00  6.3855560934901194e-05 6.0713776650932590e-06 0.0000000000000000e+00  4.5876381274032751e-05 1.0833780524758989e-05 0.0000000000000000e+00  1.8552605621011105e-05 1.5676828879149867e-05 0.0000000000000000e+00  -1.8205739313467799e-05 2.0513237430550347e-05 0.0000000000000000e+00  -6.4338716457917522e-05 2.5278548159546780e-05 0.0000000000000000e+00  -1.1967410315003289e-04 2.9924620467030995e-05 0.0000000000000000e+00  -1.8395482658187839e-04 3.4415201435515940e-05 0.0000000000000000e+00  -2.5685929680029052e-04 3.8722854053737467e-05 0.0000000000000000e+00  -3.3801671516828089e-04 4.2826787966494306e-05 0.0000000000000000e+00  -4.2701877196118972e-04 4.6711301775785493e-05 0.0000000000000000e+00  -5.2342871139147279e-04 5.0364647316913851e-05 0.0000000000000000e+00  -6.2678845120208045e-04 5.3778189850775243e-05 0.0000000000000000e+00  -7.3662424620861932e-04 5.6945778889915047e-05 0.0000000000000000e+00  -8.5245124891836839e-04 5.9863270992189720e-05 0.0000000000000000e+00  -9.7377722512253205e-04 6.2528163553743582e-05 0.0000000000000000e+00  -1.1001056148536217e-03 6.4939310590561024e-05 0.0000000000000000e+00  -1.2309380807918519e-03 6.7096699718557221e-05 0.0000000000000000e+00  -1.3657766510885199e-03 6.9001275239531659e-05 0.0000000000000000e+00  -1.5041255378919673e-03 7.0654796288317353e-05 0.0000000000000000e+00  -1.6454926938806967e-03 7.2059721854490376e-05 0.0000000000000000e+00  -1.7893911548893242e-03 7.3219116581825294e-05 0.0000000000000000e+00  -1.9353402061031235e-03 7.4136572751747312e-05 0.0000000000000000e+00  -2.0828664011597201e-03 7.4816144972866702e-05 0.0000000000000000e+00  -2.2315044574132709e-03 7.5262294934862488e-05 0.0000000000000000e+00  -2.3807980458232596e-03 7.5479844178106271e-05 0.0000000000000000e+00  -2.5303004903458556e-03 7.5473933335127230e-05 0.0000000000000000e+00  -2.6795753888501964e-03 7.5249986609819583e-05 0.0000000000000000e+00  -2.8281971654066399e-03 7.4813680574754813e-05 0.0000000000000000e+00  -2.9757515620800062e-03 7.4170916525103522e-05 0.0000000000000000e+00  -3.1218360769869197e-03 7.3327795837106581e-05 0.0000000000000000e+00  -3.2660603543654340e-03 7.2290597865895287e-05 0.0000000000000000e+00  -3.4080465315282507e-03 7.1065760025978362e-05 0.0000000000000000e+00  -3.5474295469333315e-03 6.9659859770251120e-05 0.0000000000000000e+00  -3.6838574130201936e-03 6.8079598261298801e-05 0.0000000000000000e+00  -3.8169914572781299e-03 6.6331785502274349e-05 0.0000000000000000e+00  -3.9465065339323226e-03 6.4423326855676561e-05 0.0000000000000000e+00  -4.0720912098539848e-03 6.2361210782062955e-05 0.0000000000000000e+00  -4.1934479260713076e-03 6.0152497693616391e-05 0.0000000000000000e+00  -4.3102931378140525e-03 5.7804309873887411e-05 0.0000000000000000e+00  -4.4223574348929845e-03 5.5323822376806097e-05 0.0000000000000000e+00  -4.5293856443994309e-03 5.2718254839924092e-05 0.0000000000000000e+00  -4.6311369175394811e-03 4.9994864162788727e-05 0.0000000000000000e+00  -4.7273848022795530e-03 4.7160937997581228e-05 0.0000000000000000e+00  -4.8179173034361067e-03 4.4223789010446754e-05 0.0000000000000000e+00  -4.9025369316736001e-03 4.1190749855145869e-05 0.0000000000000000e+00  -4.9810607428505986e-03 3.8069168833748744e-05 0.0000000000000000e+00  -5.0533203690135758e-03 3.4866406179194115e-05 0.0000000000000000e+00  -5.1191620422728372e-03 3.1589830942206554e-05 0.0000000000000000e+00  -5.1784466127018569e-03 2.8246818405091235e-05 0.0000000000000000e+00  -5.2310495613025372e-03 2.4844748007519305e-05 0.0000000000000000e+00  -5.2768610089935462e-03 2.1391001722512919e-05 0.0000000000000000e+00  -5.3157857224845470e-03 1.7892962837389635e-05 0.0000000000000000e+00  -5.3477431177975498e-03 1.4358015094532078e-05 0.0000000000000000e+00  -5.3726672621068920e-03 1.0793542140036090e-05 0.0000000000000000e+00  -5.3905068744567247e-03 7.2069272330016640e-06 0.0000000000000000e+00  -5.4012253258466361e-03 3.6055531626065831e-06 0.0000000000000000e+00  -5.4048006390146272e-03 -3.1976810770906940e-09 0.0000000000000000e+00  -5.4012254882076036e-03 -3.6119431221094172e-06 0.0000000000000000e+00  -5.3905071990942239e-03 -7.2133009753834610e-06 0.0000000000000000e+00  -5.3726677488511688e-03 -1.0799888809376370e-05 0.0000000000000000e+00  -5.3477437663931697e-03 -1.4364323770987376e-05 0.0000000000000000e+00  -5.3157865325844551e-03 -1.7899222509336727e-05 0.0000000000000000e+00  -5.2768619801546015e-03 -2.1397201261703072e-05 0.0000000000000000e+00  -5.2310506929814492e-03 -2.4850876141916895e-05 0.0000000000000000e+00  -5.1784479042489596e-03 -2.8252863692944156e-05 0.0000000000000000e+00  -5.1191634929232312e-03 -3.1595781747723364e-05 0.0000000000000000e+00  -5.0533219778779110e-03 -3.4872250643585315e-05 0.0000000000000000e+00  -4.9810625089076093e-03 -3.8074894850700275e-05 0.0000000000000000e+00  -4.9025388537590441e-03 -4.1196345047090546e-05 0.0000000000000000e+00  -4.8179193802307110e-03 -4.4229240696981199e-05 0.0000000000000000e+00  -4.7273870322984907e-03 -4.7166233171091547e-05 0.0000000000000000e+00  -4.6311392991162104e-03 -4.9999989459076271e-05 0.0000000000000000e+00  -4.5293881756735422e-03 -5.2723196512955339e-05 0.0000000000000000e+00  -4.4223601137929856e-03 -5.5328566264830609e-05 0.0000000000000000e+00  -4.3102959620435147e-03 -5.7808841370285569e-05 0.0000000000000000e+00  -4.1934508930925908e-03 -6.0156801712791597e-05 0.0000000000000000e+00  -4.0720943168679764e-03 -6.2365271725201710e-05 0.0000000000000000e+00  -3.9465097778613534e-03 -6.4427128572902188e-05 0.0000000000000000e+00  -3.8169948347409510e-03 -6.6335311250411845e-05 0.0000000000000000e+00  -3.6838609203524988e-03 -6.8082830664556646e-05 0.0000000000000000e+00  -3.5474331800269998e-03 -6.9662780761541653e-05 0.0000000000000000e+00  -3.4080502859756851e-03 -7.1068350788617126e-05 0.0000000000000000e+00  -3.2660642253294564e-03 -7.2292838785299550e-05 0.0000000000000000e+00  -3.1218400591993263e-03 -7.3329666417698425e-05 0.0000000000000000e+00  -2.9757556497932878e-03 -7.4172395315517619e-05 0.0000000000000000e+00  -2.8282013523525033e-03 -7.4814745075653470e-05 0.0000000000000000e+00  -2.6795796681880792e-03 -7.5250613168317945e-05 0.0000000000000000e+00  -2.5303048546023266e-03 -7.5474097024070272e-05 0.0000000000000000e+00  -2.3808024868218541e-03 -7.5479518662836191e-05 0.0000000000000000e+00  -2.2315089661869431e-03 -7.5261452312274139e-05 0.0000000000000000e+00  -2.0828709678492249e-03 -7.4814755591569800e-05 0.0000000000000000e+00  -1.9353448198326910e-03 -7.4134605003061841e-05 0.0000000000000000e+00  -1.7893958036085764e-03 -7.3216536664451090e-05 0.0000000000000000e+00  -1.6454973641755830e-03 -7.2056493500200045e-05 0.0000000000000000e+00  -1.5041302147502939e-03 -7.0650880454503843e-05 0.0000000000000000e+00  -1.3657813176017435e-03 -6.8996629756174578e-05 0.0000000000000000e+00  -1.2309427177871857e-03 -6.7091278899189698e-05 0.0000000000000000e+00  -1.1001102004251598e-03 -6.4933064796441999e-05 0.0000000000000000e+00  -9.7378173404183714e-04 -6.2521038721590760e-05 0.0000000000000000e+00  -8.5245565188259631e-04 -5.9855208143187502e-05 0.0000000000000000e+00  -7.3662850887625821e-04 -5.6936713634074840e-05 0.0000000000000000e+00  -6.2679253296314197e-04 -5.3768051944504204e-05 0.0000000000000000e+00  -5.2343256377277477e-04 -5.0353360356763876e-05 0.0000000000000000e+00  -4.2702233657554683e-04 -4.6698783173659428e-05 0.0000000000000000e+00  -3.3801992105703251e-04 -4.2812949469299803e-05 0.0000000000000000e+00  -2.5686205699067814e-04 -3.8707603243914010e-05 0.0000000000000000e+00  -1.8395703365640416e-04 -3.4398444983668936e-05 0.0000000000000000e+00  -1.1967562358914379e-04 -2.9906270474757888e-05 0.0000000000000000e+00  -6.4339383622845941e-05 -2.5258533962459878e-05 0.0000000000000000e+00  -1.8205345124715671e-05 -2.0491527198477461e-05 0.0000000000000000e+00  1.8554319748401102e-05 -1.5653468848587115e-05 0.0000000000000000e+00  4.5879728589603924e-05 -1.0808966586603897e-05 0.0000000000000000e+00  6.3860907584165077e-05 -6.0455919348317609e-06 0.0000000000000000e+00  7.2790262460768071e-05 -1.4837768358229222e-06 0.0000000000000000e+00  7.3236896971691991e-05 2.7079643404426890e-06 0.0000000000000000e+00  6.6153871775048812e-05 6.2893635956529612e-06 0.0000000000000000e+00  5.3032168920054021e-05 8.9116267997146449e-06 0.0000000000000000e+00  3.6112939427267581e-05 1.0063979375195460e-05 0.0000000000000000e+00  1.8703912881812972e-05 9.0457734424835930e-06 0.0000000000000000e+00  5.1111640817058613e-06 5.1112694803353843e-06 0.0000000000000000e+00  -3.1255549469726774e-16 0.0000000000000000e+00 0.0000000000000000e+00  -2.1549150726862922e-16 0.0000000000000000e+00 0.0000000000000000e+00  9.1346709280004205e-06 -1.8655355834386557e-05 0.0000000000000000e+00  2.9557929984925073e-05 -2.9542716347859058e-05 0.0000000000000000e+00  5.3644896817605757e-05 -3.1665964700426594e-05 0.0000000000000000e+00  7.5196101783853077e-05 -2.6806755359804911e-05 0.0000000000000000e+00  8.9366902080446905e-05 -1.6918220563477340e-05 0.0000000000000000e+00  9.2499444233123238e-05 -3.5677859835339734e-06 0.0000000000000000e+00  8.1999324639061373e-05 1.2085751959916511e-05 0.0000000000000000e+00  5.6098635487988591e-05 2.9198025394101576e-05 0.0000000000000000e+00  1.3670318330396098e-05 4.7151747397018389e-05 0.0000000000000000e+00  -4.5923805115826202e-05 6.5491662864098911e-05 0.0000000000000000e+00  -1.2294858440977811e-04 8.3878399419914460e-05 0.0000000000000000e+00  -2.1738255815897833e-04 1.0205642014053192e-04 0.0000000000000000e+00  -3.2898359838634907e-04 1.1983165913772419e-04 0.0000000000000000e+00  -4.5733867595581650e-04 1.3705576577318227e-04 0.0000000000000000e+00  -6.0190192206320320e-04 1.5361487047763111e-04 0.0000000000000000e+00  -7.6202402854894287e-04 1.6942147023079709e-04 0.0000000000000000e+00  -9.3697519717990581e-04 1.8440849210831490e-04 0.0000000000000000e+00  -1.1259632457307777e-03 1.9852489621206495e-04 0.0000000000000000e+00  -1.3281480458227524e-03 2.1173237999115886e-04 0.0000000000000000e+00  -1.5426531571234778e-03 2.2400287990525052e-04 0.0000000000000000e+00  -1.7685752990546076e-03 2.3531665680294749e-04 0.0000000000000000e+00  -2.0049921392137999e-03 2.456608