<?xml version="1.0"?>
<VTKFile type="UnstructuredGrid"  version="0.1"  >
<UnstructuredGrid>
<Piece  NumberOfPoints="2610" NumberOfCells="4906">
<Points>
<DataArray  type="Float64"  NumberOfComponents="3"  format="ascii">0 0.08 0  0 0 0  1 0 0  1 0.2 0  0 0.2 0  0 0.12 0  0.06 0.12 0  0.06 0.08 0  0.5 0 0  0.5 0.2 0  0.25 0 0  0.25 0.2 0  0.125 0 0  0.125 0.2 0  0.75 0.2 0  0.75 0 0  0.375 0.2 0  0.375 0 0  0.625 0 0  0.625 0.2 0  0.875 0.2 0  0.875 0 0  0.6875 0.1 0  0.5625 0.09999999999999999 0  0.3125 0.09999999999999999 0  0.4375 0.1 0  0.1875 0.1 0  0.8125 0.09999999999999999 0  1 0.1 0  0.90625 0.1109375 0  0.9375 0 0  0.9375 0.2 0  1 0.15 0  0.1271739130434782 0.06817255434782608 0  0.1244274933676585 0.1340589116387775 0  0.75 0.13046875 0  0.743125 0.06523437500000001 0  0.6875 0 0  0.8125 0.2 0  0.1875 0 0  0.1875 0.2 0  0.25 0.13046875 0  0.243125 0.06523437500000001 0  0.375 0.06953125 0  0.368125 0.134765625 0  0.3125 0.2 0  0.4375 0 0  0.3125 0 0  0.5625 0.2 0  0.625 0.13046875 0  0.618125 0.06523437500000001 0  0.5625 0 0  0.5 0.06953125 0  0.506875 0.134765625 0  0.4375 0.2 0  0.8125 0 0  0.6875 0.2 0  0.0625 0.2 0  0.0625 0 0  0.9481553398058252 0.06287166262135922 0  0.84375 0.15 0  0.84375 0.05 0  0.8969341874373811 0.04847449214836316 0  0.792718974434559 0.05287123402159932 0  0.9554036458333334 0.125 0  0.4518017578125 0.05000000000000001 0  0.6691578248170046 0.05000000000000001 0  0.3199267578125 0.15 0  0.1753205385667597 0.05000000000000001 0  0.5550732421875 0.15 0  0 0.16 0  1 0.05 0  0 0.04 0  0.7018017578125 0.15 0  0.5481982421875 0.05 0  0.2018017578125 0.15 0  0.3268017578125 0.05 0  0.4191578248170045 0.15 0  0.7940668202764977 0.1537136376728111 0  0.4662643004167278 0.1610836493503644 0  0.8605643203883495 0.09527457524271844 0  0.890625 0.15546875 0  0.09375 0.03511745067535364 0  0.40625 0.034765625 0  0.65625 0.165234375 0  0.2810740097268118 0.0362543286448616 0  0.15625 0.1667556551492541 0  0.09375 0.1672982859339529 0  0.59375 0.2 0  0.2779806263051747 0.165234375 0  0.59375 0 0  0.71875 0 0  0.2147277693789563 0.03311578414932109 0  0.09814309625884218 0.09996284794960231 0  0.04369897959183674 0.1605484693877551 0  0.05318949306135778 0.03974810915816743 0  0.96875 0 0  0.9616530031741775 0.1661287539677218 0  0.2812306203147679 0.07579630920895752 0  0.6517420860611969 0.08475320452844308 0  0.4785050801495401 0.1047760458195694 0  0.3964949198504599 0.1047760458195694 0  0.7751304711039982 0.08796919122954962 0  0.5952456834084205 0.1588841203520991 0  0.709652385012882 0.04057042807003697 0  0.5224392170667893 0.1693853886699131 0  0.34375 0.2 0  0.2878064413012797 0.1286834853615993 0  0.162395529377509 0.1289402491209287 0  0.4204339877699043 0.06807311775992612 0  0.662545337677002 0.1281478881835938 0  0.9253862011026743 0.1658146896287639 0  0.5870724660941802 0.0396661582528333 0  0.15625 0 0  0.141830215572243 0.0341367155133407 0  0.1393916882594152 0.1016822622461003 0  0.3513908387537223 0.1656839402738459 0  0.3869129551193354 0.164922114711397 0  0.5897809475809899 0.123376020987713 0  0.37128662109375 0.034765625 0  0.7171227890186096 0.1185722436797753 0  0.4860315647536819 0.034765625 0  0.2261767578125 0.1 0  0.3421227890186095 0.08142775632022471 0  0.5328772109813904 0.08142775632022471 0  0.2360315647536819 0.165234375 0  0.7360315647536818 0.165234375 0  0.2067053742900418 0.06882149432177781 0  0.53125 0 0  0.7852271904453858 0.1206603749322895 0  0.34375 0 0  0.78125 0 0  0.7617304217264373 0.03421572296338501 0  0.4548882166590948 0.1291262674944789 0  0.8700571879807737 0.1281370494505113 0  0.65625 0 0  0.6366531504492252 0.03420757940363092 0  0.03 0.08 0  0.03125 0 0  0.9687045771608622 0.0347940142744611 0  0.09074710325795127 0.1337506133329507 0  0.7103473238297955 0.07467290562767283 0  0.5374692558242888 0.1218336218188623 0  0.3375307441757111 0.1218336218188623 0  0.5848957879468327 0.07395044821493228 0  0.2484048329524017 0.03281134953570222 0  0.7438284572973297 0.09813970113213773 0  0.621668283701159 0.09784041403808147 0  0.09465571614230139 0.06762759960828581 0  0.5197123943460413 0.03178327183020477 0  0.78125 0.2 0  0.9663425996156958 0.09223680218446603 0  0.9164108319316826 0.07749591057950532 0  0.9361952437854323 0.03255987911015318 0  0.90625 0 0  0.2677110543832378 0.1043296847204294 0  0.1576477272805082 0.07604385736866637 0  0.1250145589501114 0.1687038646796093 0  0.90625 0.2 0  0.03125 0.2 0  0.21875 0 0  0.09375 0.2 0  0.28125 0 0  0.40625 0 0  0.09375 0 0  0.46875 0.2 0  0.84375 0 0  0.84375 0.2 0  0.65625 0.2 0  0.15625 0.2 0  0.28125 0.2 0  0.96875 0.2 0  0.53125 0.2 0  0.40625 0.2 0  0.46875 0 0  0.21875 0.2 0  0.71875 0.2 0  0.9367430731670982 0.1005618768676794 0  0.6250638919939727 0.1686296746855935 0  0.4696476224001346 0.07519709874296637 0  0.03 0.12 0  0.364920716537372 0.1033207399214296 0  0.510079283462628 0.1033207399214296 0  0.8708145383129687 0.06570820807474462 0  0.7644517238097613 0.1564642815248879 0  0.859375 0.175 0  0.8202713858253524 0.1700914911408453 0  0.8385798963609093 0.1184656897744316 0  0.859375 0.025 0  0.8347112894496929 0.07911643090605805 0  0.8171336163141124 0.03186961480367975 0  0.9260046763071323 0.1348239383805483 0  0.8894824168160766 0.08757844881776053 0  0.4949897466230512 0.1609174819802034 0  0.8178764773815543 0.1380510291685585 0  0.22114013671875 0.1284860534667969 0  0.734375 0.02447550461714185 0  0.6104437442232596 0.02404740279519573 0  0.07026609340229868 0.152492128672657 0  0.7876048686123861 0.02630104216132202 0  0.9763791965474028 0.06570595206519909 0  0.171875 0.02267731111015029 0  0.394588836711733 0.139209086075769 0  0.4285660420121937 0.1250869894546397 0  0.6852748284098915 0.02754806416207705 0  0.676789440676291 0.07556474520402978 0  0.439058915527992 0.1710637680613646 0  0.890625 0.02212959347356643 0  0.0266486837577728 0.0512634871816704 0  0.4613409083631049 0.02536100754343198 0  0.4335759857361153 0.02877770140518803 0  0.546875 0.0225761034488678 0  0.3441176074448496 0.02799703513256633 0  0.7113409083631049 0.1746389924565681 0  0.6833991048585878 0.1722584415596964 0  0.203125 0.1774238965511322 0  0.6445080807531295 0.05938771235965257 0  0.5710147579784668 0.1731836917771822 0  0.3091695592815616 0.07200197410344605 0  0.4802124154991808 0.1381149438061808 0  0.3531209426864378 0.05428706260644136 0  0.1889622813942532 0.1266271388781874 0  0.6891285423047308 0.1265795824126807 0  0.3181995112792868 0.02541514216595461 0  0.5580194160375702 0.07423620176851081 0  0.328125 0.1785122389515018 0  0.3019798522816674 0.1759253857640147 0  0.4109414080460347 0.1745449980490013 0  0.02203979035571559 0.0250115549654028 0  0.523418502869056 0.05736825659886007 0  1 0.175 0  1 0.125 0  0.9745453722632058 0.143130647650054 0  0.7688757540875548 0.0628787812479088 0  0.7989736914510024 0.07796164400324013 0  0.6427136188057356 0.1121757217023557 0  0.02166109727834132 0.1752842990012959 0  0.5627873485713789 0.1255942486810033 0  0.8186930256567032 0.05818265401322384 0  0.727390782376841 0.1415736140746885 0  0.3126463444430307 0.1250970494996423 0  1 0.07500000000000001 0  0 0.14 0  1 0.025 0  0.07512189039696839 0.05190411115420282 0  0.5294171514872738 0.145439744828038 0  0.4444431162323196 0.07576404134227754 0  0.5955120359408849 0.09785535981907764 0  0.1823790072942816 0.07380785456292804 0  0.796875 0.1799761139462447 0  0.9216089330674209 0.0529611769029957 0  0.6601524569744324 0.02495275542944236 0  0.6770521443133906 0.1482743347210414 0  0.546112148566345 0.1791475606386017 0  0.1761590451803609 0.1505840818567093 0  0.02460687105394148 0.1444103065809122 0  0.07120243407392927 0.1770338877313399 0  0.1633974390410476 0.09945687186116443 0  0.1175910834165607 0.02486997948140995 0  0.1785455276644825 0.1771074681961838 0  0.692146705980565 0.05705880569002558 0  0.2629179521063235 0.05181609829245857 0  0.3023351939468626 0.04845883525960867 0  0.9465430989063842 0.1473854863135378 0  0.8828125 0.177734375 0  0.8671875 0.152734375 0  0.9020944499960918 0.1344862653495059 0  0.7635919053482566 0.111120494601587 0  0.484375 0.1821406666411285 0  0.078125 0.01755872533767682 0  0.1111997263584312 0.05089900107374735 0  0.9777018229166666 0.1142371558504118 0  0.9145348779800376 0.02243064180928886 0  0.390625 0.0173828125 0  0.388768310546875 0.05047950316011236 0  0.6446928897399181 0.1441950323967028 0  0.7736177475122632 0.177936237612333 0  0.5706954769012093 0.02236722841441926 0  0.5778375673700133 0.1433886845638334 0  0.2664759159397393 0.01805587328220606 0  0.6645881596017071 0.1041800932240139 0  0.2588156769254109 0.08264533362407897 0  0.9535700747280548 0.0173772197197408 0  0.3465759789726826 0.1430902180816238 0  0.1453084742908287 0.1455704350490423 0  0.3980648668800888 0.07964156934319017 0  0.0439943820857696 0.01889452107995747 0  0.1074476210420173 0.149163960738576 0  0.570370727357197 0.05512310615437524 0  0.2904774127992698 0.10601185786648 0  0.8834381839471677 0.1096146921727965 0  0.2959476046910677 0.01819893842086773 0  0.4467720222370625 0.15001894508994 0  0.1529882166836788 0.05386388510163644 0  0.2975169820110305 0.1536613685968155 0  0.2570060955294283 0.1769960377767424 0  0.2565212593315024 0.1532779105179583 0  0.7206784625702914 0.09555092280834117 0  0.4176438923770348 0.09008914451496701 0  0.609375 0.1842829488147294 0  0.8764591061246652 0.0394500262246221 0  0.109375 0.1843446602094066 0  0.640625 0.1843465957419332 0  0.2314341317960758 0.01834277123166436 0  0.1416082770445648 0.1833778275746271 0  0.9043866940958366 0.1728008411301181 0  0.194798526301597 0.02175037433494279 0  0.2059301797880308 0.1123415921013411 0  0.045 0.06368699113376361 0  0.046875 0.1832405773900249 0  0.05208467163922389 0.1403687809020387 0  0.5036255823921723 0.04788553975285638 0  0.473794201357861 0.05334205796345066 0  0.703125 0 0  0.0811550383122851 0.1139475947359676 0  0.0814662952760431
[...]
<PointData  Scalars="f_19272"> 
<DataArray  type="Float64"  Name="f_19272"  format="ascii">2.5881993156144428e+06  3.8149023540473096e+06  2.0000000000233890e+06  1.9999999999923683e+06  3.8491112699838285e+06  2.5566403113546181e+06  3.1116831497277441e+06  3.1861635354400324e+06  1.9999854286525485e+06  1.9999835132608351e+06  1.9978634453302701e+06  1.9996409060936719e+06  2.1269198204319500e+06  2.1275583821778814e+06  2.0000002117416365e+06  2.0000002021262457e+06  1.9990788175612853e+06  1.9990889668268529e+06  2.0000056695345945e+06  2.0000045995177161e+06  1.9999999764603092e+06  1.9999999789020200e+06  1.9999986137082095e+06  2.0000070871520995e+06  2.0000456112359245e+06  2.0002930086185667e+06  1.9429165569778455e+06  1.9999999300692810e+06  2.0000000034902245e+06  2.0000000051699609e+06  1.9999999945687386e+06  1.9999999944533205e+06  2.0000000014985236e+06  1.9151417007678356e+06  1.9502997034091533e+06  1.9999997225024982e+06  1.9999997143916970e+06  2.0000015891430690e+06  1.9999999892981618e+06  2.0318194850897435e+06  2.0287261218838224e+06  1.9940137939994505e+06  1.9936217397740537e+06  2.0004973919307271e+06  2.0004633582335208e+06  1.9968330368006213e+06  1.9997402256182197e+06  1.9968715934994291e+06  2.0000094367833044e+06  1.9999984640388743e+06  1.9999985987193410e+06  2.0000084708323046e+06  2.0000473991584729e+06  2.0000285601845176e+06  1.9997801733947506e+06  1.9999999779463119e+06  2.0000016107526685e+06  2.0573646707848231e+06  2.0987898730839984e+06  2.0000000023297840e+06  1.9999999975329612e+06  1.9999999979516456e+06  2.0000000014709050e+06  1.9999999705335021e+06  2.0000000028086081e+06  2.0000482022280504e+06  1.9999995302552874e+06  2.0001511859444438e+06  1.9919889764303735e+06  2.0000013328482248e+06  2.1332756307627060e+06  2.0000000016090025e+06  2.1234724521063496e+06  1.9999997484430426e+06  2.0000023375987585e+06  1.9931001105288896e+06  2.0001681494040603e+06  2.0000872484433891e+06  1.9999999839684153e+06  1.9999924946390805e+06  1.9999999946090279e+06  2.0000000004484961e+06  2.2193413150950745e+06  1.9998885817461621e+06  2.0000003702694944e+06  2.0000106235443319e+06  2.0352931404021792e+06  2.2142896364946445e+06  2.0000065588941402e+06  2.0002669675599094e+06  2.0000070541692269e+06  2.0000006127952482e+06  2.0047944593129379e+06  1.3294097096304260e+06  2.3868297021776671e+06  2.3242039993404755e+06  1.9999999988817177e+06  1.9999999998427292e+06  1.9978578926883445e+06  1.9999981053314880e+06  2.0001125141762951e+06  2.0005471942873357e+06  1.9999998093263095e+06  2.0000001797651714e+06  2.0000000155186481e+06  1.9999959822282775e+06  1.9979581868156537e+06  1.9988352679032872e+06  1.9304087738954930e+06  2.0002782744976862e+06  1.9999986055224133e+06  1.9999999985406874e+06  2.0000001527323627e+06  2.0720982727544680e+06  2.0558852038719917e+06  1.8015078204632164e+06  1.9997364453876880e+06  1.9998546082127008e+06  2.0000000392700068e+06  1.9998361472817997e+06  1.9999992814586051e+06  1.9999847961278893e+06  1.9813407328806440e+06  2.0006295868558961e+06  2.0000207345812127e+06  2.0022728380306007e+06  2.0000001012839852e+06  1.9788512585808057e+06  2.0000074464066334e+06  1.9999998584357160e+06  1.9980244208478159e+06  2.0000000224925189e+06  2.0000000573403332e+06  2.0001458541472105e+06  2.0000000007596987e+06  2.0000026757310731e+06  2.0000006768127445e+06  2.6197180085015623e+06  2.2343781834656070e+06  2.0000000000327497e+06  2.1506853710800572e+06  1.9999992943287138e+06  2.0000154695508822e+06  2.0006281778595878e+06  2.0000003167894068e+06  2.0018466190496555e+06  1.9999995361570050e+06  1.9999980395658396e+06  2.0639870153667603e+06  1.9999945459229497e+06  2.0000000537947700e+06  2.0000000031228599e+06  2.0000000049729054e+06  1.9999999987932062e+06  1.9999999890780081e+06  1.9950382170177794e+06  1.9126945601849591e+06  2.1099749678859347e+06  1.9999999863148290e+06  2.2440517292281673e+06  2.0077156396145404e+06  2.1438960573811471e+06  1.9962862187518810e+06  1.9995096926656829e+06  2.1396541526309466e+06  1.9999121194329967e+06  1.9999999688727001e+06  1.9999999723188549e+06  2.0000025931208786e+06  2.0763345947779631e+06  1.9962112459856470e+06  1.9999999985530763e+06  2.0000070579462918e+06  1.9995078206879853e+06  1.9999186949028869e+06  2.0073757549242736e+06  2.0000006570574900e+06  2.0000000045074483e+06  2.0000010400411398e+06  2.0001165161316402e+06  2.6617198721009530e+06  2.0007484910327115e+06  2.0000486845817412e+06  2.0000000012750546e+06  1.9999999811236472e+06  1.9999999965922511e+06  2.0000000048298407e+06  1.9999999818764068e+06  1.9999999949538454e+06  1.9999999794852678e+06  2.0000000060235693e+06  2.0000000033936480e+06  2.0000000040766969e+06  1.9999972551025436e+06  1.9999999742073973e+06  1.9842097405805418e+06  2.0000002133366808e+06  2.0000022199408934e+06  2.3022013163272412e+06  2.0000000377774329e+06  2.0000000019599805e+06  2.0348591215413942e+06  2.0002823543719214e+06  2.0002675520434559e+06  2.0000005370101219e+06  1.9999987243940814e+06  1.9999082330610526e+06  1.9999999930695591e+06  2.4810914684675406e+06  1.9999361084225387e+06  1.9998943100140977e+06  1.9999989116896503e+06  1.9995250945992840e+06  2.0000004360915865e+06  2.0000006788933300e+06  2.0144432445070248e+06  1.9999987556240358e+06  2.0000010457363178e+06  2.0000024349466083e+06  2.0000604807810108e+06  2.0002893181685607e+06  1.9592334174656749e+06  1.9999990323087587e+06  1.9994184533600588e+06  2.0000057914372734e+06  1.9991314434270810e+06  1.9994345418249452e+06  1.9997766976185518e+06  2.4007890108373305e+06  2.0000123044798209e+06  2.0000000002417718e+06  2.0000000027364565e+06  2.0000000014988971e+06  1.9999998734007988e+06  1.9999999113103342e+06  1.9999980180325371e+06  2.3874828693942525e+06  2.0000048425527937e+06  1.9999999824394311e+06  1.9999997209702153e+06  2.0001419447391862e+06  2.0000000030442306e+06  2.1121057082131812e+06  2.0000000003014607e+06  2.3126651485686884e+06  2.0000088603875665e+06  2.0002023454565029e+06  1.9999996039229676e+06  1.9542907154537621e+06  2.0000000290917014e+06  2.0000000023454700e+06  2.0000010041883402e+06  1.9999995169266288e+06  1.9999999682809678e+06  1.9926798967305173e+06  2.5156477092350172e+06  2.2269877467106828e+06  1.8953183288261921e+06  2.1351327640753803e+06  2.0321308544612667e+06  1.9999993942667611e+06  1.9987064489943739e+06  1.9999765073583934e+06  2.0000000012311672e+06  1.9999999939670886e+06  2.0000000001520694e+06  2.0000000035080828e+06  1.9999997291409546e+06  1.9999571393242595e+06  2.2050283448209683e+06  2.0930204206299784e+06  2.0000000025089907e+06  1.9999999949040923e+06  1.9995423087986587e+06  2.0001722335832217e+06  1.9999991337647191e+06  2.0000000803711563e+06  2.0000014295895565e+06  2.0000003938004121e+06  2.0004758074248100e+06  1.9999981496060933e+06  1.9938949263403271e+06  1.9999999980210902e+06  2.0003593335161530e+06  1.9842381826443023e+06  2.0004648539830875e+06  2.3171595735299494e+06  2.1350172176334360e+06  2.0000007586932464e+06  1.9984143073318582e+06  2.0000000030182339e+06  1.9990130253660977e+06  2.0000516790293769e+06  1.9906631645983465e+06  1.9999986083242970e+06  2.0015390968914463e+06  1.9994397564132635e+06  1.9999992515412155e+06  2.0004008516687581e+06  2.0000033507568694e+06  1.9999999991528613e+06  2.1510238518848200e+06  2.0000023447167722e+06  2.0054266705446551e+06  2.0849926931893567e+06  1.9999999962375367e+06  2.0182259593664105e+06  1.9662321171364170e+06  2.6960185249929042e+06  2.2672641785326051e+06  2.3571114531156491e+06  2.0000092928529824e+06  2.0000431974526811e+06  2.0000009911823648e+06  1.6175826907956502e+06  1.6355313687457030e+06  1.7482027120202801e+06  1.7320596616004768e+06  1.9936115341535346e+06  1.9946786638646894e+06  1.9999999990703792e+06  1.9999998335784886e+06  1.9889266327388082e+06  1.9999999754228664e+06  1.9991690023764414e+06  1.9995063285401389e+06  1.9999999970415568e+06  1.9999999974770420e+06  2.0000004718093579e+06  1.9999996826236271e+06  1.9998701927099547e+06  2.0000590403353507e+06  1.9999999088829539e+06  1.6521436084920536e+06  2.0005249256634209e+06  2.0000669253659649e+06  2.0000745379743087e+06  2.0001810284487838e+06  1.9999992956474253e+06  1.9999101791103804e+06  1.9999984982490947e+06  2.0000000006924176e+06  2.0006289543773804e+06  2.0006938879849741e+06  2.0000268488893253e+06  2.0000028241096172e+06  1.9999993094090072e+06  1.9999794889602743e+06  1.9999999997171960e+06  1.9993186442248069e+06  1.9999999996233606e+06  2.2287169966209359e+06  2.2566209278560057e+06  2.0504747571535462e+06  1.2336222617506466e+06  2.0000026338063634e+06  2.0000000041085263e+06  1.9977012213811958e+06  1.9999988332622012e+06  1.9996533334064239e+06  2.0000001106623102e+06  1.9950623863179819e+06  1.9994769414438370e+06  1.9999999807352368e+06  2.0000037617007196e+06  1.9999999969323627e+06  2.0000000928873548e+06  2.0000000036074028e+06  1.9999997282373034e+06  1.9999998682441320e+06  1.9999999915094748e+06  2.0000000007669227e+06  1.9999981560342193e+06  1.9999433377299260e+06  2.0083901750511681e+06  2.0000003612491370e+06  2.0000013962793024e+06  1.9991420925951153e+06  1.9866602592323595e+06  1.9866212242649030e+06  1.9672392652503541e+06  1.9999999934916690e+06  1.9999999543722216e+06  1.8953853987426509e+06  1.9997249051593868e+06  2.0962370222593199e+06  2.0003941143018601e+06  2.0000000025623247e+06  2.0000073164287603e+06  1.9999994530101919e+06  2.0621202824008577e+06  2.0000000358154287e+06  1.9999998928092176e+06  1.9999785273302405e+06  1.9992775155644345e+06  1.9277727830102569e+06  2.0238711745633732e+06  2.0000022752419780e+06  1.9999999394155587e+06  1.9995990377628244e+06  1.9999999614119572e+06  2.0003744737719200e+06  2.0261888857305886e+06  2.0002950613214271e+06  1.9999988075431541e+06  2.0000000208402488e+06  1.9999999639609796e+06  2.0000001846283865e+06  1.9999999188483721e+06  2.0000027000724776e+06  1.9999947080288711e+06  1.9999985091224348e+06  2.4261787224870068e+06  1.9973342673968351e+06  2.0000022530345765e+06  2.0000000039846755e+06  1.9999999549128565e+06  2.0106916754257032e+06  1.7776973367699552e+06  2.0000004123776844e+06  2.0001443865164868e+06  2.0002004311488941e+06  2.0000235913010340e+06  1.9995687054513451e+06  2.0000443316826243e+06  2.0006869696075320e+06  1.9990597697885190e+06  2.0000344518406359e+06  2.1731426146823093e+06  1.9999989302025756e+06  2.0000121848418438e+06  2.0000097585554565e+06  1.9999994438764143e+06  2.0002283343420827e+06  2.0004497223710895e+06  2.0004616287178271e+06  1.9999995337357065e+06  2.0000000036791719e+06  2.0000000053701773e+06  1.9999999983242420e+06  1.9994725050356637e+06  2.0001610231764270e+06  1.9998559550924746e+06  2.0000007701260222e+06  2.0000003564710866e+06  2.0000000006119844e+06  2.0000000014051311e+06  2.3855299502414074e+06  2.0502134841767813e+06  2.0000000036296202e+06  2.2582298074433566e+06  2.3817903770555104e+06  2.0000000002963904e+06  1.9999999943594802e+06  2.0000032562189610e+06  2.0124928989809621e+06  2.0031841633412370e+06  1.9999999974652145e+06  1.9999999953838964e+06  2.0000000025865084e+06  2.2400387808538103e+06  1.9999990081438289e+06  2.3621791254637185e+06  1.9999940309120817e+06  2.3945162687071390e+06  2.0002363423010854e+06  2.0000618617474837e+06  1.9999999138547631e+06  2.0000003467228799e+06  1.9999953680465645e+06  2.0000000007623516e+06  2.2419377233006745e+06  2.0013527765360565e+06  1.9999999001925366e+06  1.9997969929263468e+06  1.9999990767140032e+06  2.0000074134175123e+06  2.0000000024538352e+06  1.9857432931322737e+06  1.9987325567169676e+06  1.9999999776923151e+06  2.0000968476661756e+06  1.9999999687535858e+06  2.0106303288894601e+06  2.6099115705554532e+06  2.0001701226819435e+06  1.7883934689195445e+06  2.0546581210206745e+06  1.9999985504097221e+06  2.0000129857486230e+06  2.0000072262303941e+06  2.0005729630232374e+06  2.0003848157185102e+06  2.0004401104396277e+06  2.0000214066141113e+06  1.9999979672231169e+06  1.9998244213993324e+06  2.0000021260911624e+06  2.3824654490855699e+06  1.9954089784238713e+06  1.9999996052337140e+06  2.6041522272863532e+06  1.9976709023715996e+06  2.0018130114989155e+06  2.0002538134799392e+06  2.0000008333698832e+06  2.0000000010106906e+06  1.9999978298373260e+06  2.1798468360475912e+06  1.9999996947838219e+06  1.9993634994647249e+06  1.9999992786160018e+06  1.9999999954234147e+06  2.2022600040466073e+06  1.9999997950366905e+06  2.0000000037327362e+06  1.9999999811642559e+06  1.9998663222764928e+06  2.0000001222749334e+06  1.9989091254101824e+06  1.9746200707272631e+06  2.0000000050963459e+06  1.9999999892553538e+06  1.9999999992632249e+06  2.1372715140061537e+06  1.9999998987351463e+06  1.9999994014051119e+06  1.9999999933094583e+06  1.9999999924018288e+06  2.0000069816506663e+06  1.9999982778435391e+06  2.3205140192089421e+06  2.0000000042869789e+06  1.9999999870463200e+06  1.9299632754357124e+06  1.9999949909698009e+06  1.9971255640641931e+06  2.0173381697140166e+06  2.0000000131577074e+06  2.0006434750542345e+06  2.0000431190070387e+06  1.9974413614450940e+06  1.9998406857346606e+06  1.9620331158486207e+06  1.9213756535838717e+06  1.8489346681236781e+06  1.9999999994966886e+06  1.9999999979912397e+06  1.8902088154636263e+06  1.9999999898513376e+06  2.0000007944709768e+06  2.0000009112751451e+06  1.9549260386586925e+06  1.9999997508239534e+06  1.9999999990317442e+06  2.0000000025562085e+06  2.0537791586914358e+06  2.1192603421487343e+06  2.1585362588618849e+06  2.0000000020604134e+06  2.0000000003202686e+06  1.9999999986267115e+06  1.9936192467807622e+06  2.0000000020845390e+06  2.0000026507936283e+06  2.0000009994303226e+06  1.9980024072925309e+06  2.1465547222801936e+06  2.0000000022442916e+06  2.0000020692702003e+06  2.0000001134496469e+06  1.9999999999751553e+06  2.1027486624512007e+06  2.0000034190986878e+06  2.1000723378848108e+06  2.1491881755875964e+06  2.0000067698636497e+06  1.9972907420985699e+06  2.1076759525973694e+06  1.9999999968708421e+06  1.9982371684372439e+06  1.9993005533753503e+06  2.1285530780071481e+06  1.9999627567615411e+06  2.0000000163856926e+06  2.0013829558805823e+06  2.0152723372586605e+06  2.0000059148868746e+06  2.0472693427674351e+06  2.0000060314889064e+06  2.0000003930572015e+06  1.9999999752074301e+06  1.9999999858159218e+06  1.9999999751972663e+06  1.9986080451528290e+06  1.9980121068141852e+06  2.0000061419845580e+06  2.1326656545719933e+06  1.9999999998524908e+06  1.9999613521653058e+06  1.9998628860769749e+06  2.0020880528846532e+06  2.0529340621750366e+06  1.9999999750924602e+06  1.9999999914657322e+06  1.9999984164070468e+06  1.9970126554194503e+06  2.0000000018039159e+06  1.9999999637492583e+06  2.4217809864335014e+06  2.4812351972653801e+06  2.0000000044618968e+06  2.0000000014193507e+06  1.9999995454886835e+06  1.9997176792958020e+06  2.0000000003122529e+06  2.0001043877046511e+06  2.0001180813243934e+06  2.0000617420990847e+06  2.0001582904534219e+06  2.0005258547307292e+06  1.9999991066200696e+06  2.0000000010189838e+06  2.0000012644081682e+06  1.9999923078822102e+06  1.9999998630297983e+06  1.9999996885942409e+06  1.9999999902281235e+06  1.9999999601019027e+06  1.9999999911444620e+06  1.9999999998405185e+06  1.9999981790767412e+06  2.0003019506969377e+06  2.0000201577565775e+06  1.9999999916201625e+06  1.9970932155157072e+06  2.0006598915626919e+06  2.0000000013813409e+06  3.0871119738352960e+06  2.7196200489695747e+06  1.9772540016322127e+06  3.3782991530701350e+06  2.0002677064245718e+06  1.9993769137146478e+06  1.9999997933701642e+06  2.0000003804705704e+06  1.9999998673505383e+06  2.0002479597400299e+06  1.9597236217614971e+06  1.9999999616571397e+06  1.9999999871818726e+06  1.9999999987206450e+06  1.9999999881709642e+06  1.9999999893397666e+06  1.9999999978996518e+06  1.9993299354863539e+06  2.0321390335037643e+06  2.0000285357255151e+06  2.0000000083215677e+06  1.7479050741372625e+06  2.0000000030217427e+06  1.9995361440605309e+06  1.9997763582854830e+06  1.9993965458851433e+06  1.9999996655646868e+06  2.2727513813818339e+06  2.0003819426142941e+06  2.6736927429929064e+06  2.0000004421731394e+06  2.0000000023982369e+06  2.0000000018235575e+06  1.9998431185139525e+06  2.0000119596011059e+06  1.9999637696850379e+06  2.4535717021852569e+06  2.3358082309472281e+06  1.9890097149381293e+06  1.9790647105426602e+06  1.9999999701482302e+06  2.0000001640029699e+06  2.0000002448587841e+06  1.9999999993180619e+06  2.0000000047621042e+06  2.0000000030086422e+06  1.9991645446983315e+06  2.0000202615552198e+06  1.9999775274633453e+06  2.0000176338117723e+06  1.9989418620482900e+06  2.0000118941392221e+06  1.9999527565178249e+06  1.9785959951460005e+06  2.0000000033810954e+06  7.0194398381774151e+05  1.9999860067120609e+06  2.0000004454941414e+06  2.0000000122588065e+06  1.9998909821806990e+06  1.9999995984976911e+06  1.9999031667340023e+06  2.0000025343436606e+06  1.9897093512589587e+06  1.9999996488052015e+06  2.0000003302058566e+06  2.0000011730702673e+06  2.0000005613603340e+06  2.0000839841144949e+06  1.9999383258227010e+06  1.9998541136937451e+06  1.9999231919710068e+06  1.9918522264532512e+06  1.9999085465208150e+06  1.9999999564173920e+06  2.0000000403016848e+06  2.0000849227744667e+06  2.0007551876421873e+06  2.2542674624719694e+06  2.3108417613555435e+06  2.0000044623781664e+06  2.0000008503865569e+06  2.0000002977116271e+06  2.0000000017159029e+06  1.9999999909262361e+06  2.0000019317574685e+06  2.0321373566707517e+06  2.0873151724210184e+06  2.3316981624377556e+06  2.0000028022394241e+06  2.0042301650319553e+06  2.0131604597589304e+06  2.0274191815839752e+06  2.0000740870172468e+06  1.9999980206763707e+06  1.9983759462387976e+06  1.9999994430334545e+06  2.0000034013807082e+06  2.0005167096098862e+06  1.9999658938602752e+06  1.5362777813340342e+06  1.9787424702480386e+06  1.9585927313547397e+06  1.9999927419849795e+06  2.0000008342802271e+06  1.9999999894390430e+06  2.0000000811857725e+06  2.0000012291683638e+06  1.9999999964900832e+06  2.0000000381592528e+06  1.9999918276224292e+06  2.4938899234697274e+06  2.0000000021489474e+06  2.0000022499736601e+06  1.9999999988968035e+06  2.0000960417796238e+06  2.0000547185166164e+06  2.0000000050874560e+06  1.9999987263521892e+06  2.0004486538475158e+06  2.1475911879180730e+06  2.0000293041607675e+06  1.9999447816845740e+06  1.9999999988506376e+06  2.0002280993623096e+06  1.9999990505906735e+06  1.9999983529360034e+06  1.9497970249108672e+06  1.9998980262684200e+06  2.0000006406507492e+06  1.9999999998952912e+06  2.4120870350874122e+06  2.0142832180612390e+06  2.0001786897132958e+06  1.9999993159326594e+06  1.9999990096867548e+06  2.0000000201064015e+06  1.9999991236506351e+06  1.9982889516613444e+06  1.9996220770659582e+06  2.0000000001620627e+06  1.9998628573998217e+06  2.3656179226718578e+06  2.3540074750376465e+06  2.0089847698678619e+06  1.9996169624374709e+06  2.0000000032080063e+06  1.9899012006972542e+06  1.9999650871979764e+06  2.0000002059177710e+06  1.9999984292141427e+06  1.9999991893579576e+06  2.0000000006499130e+06  2.0000000012860256e+06  1.9999906276463312e+06  1.9999999805523579e+06  1.9993393610799909e+06  2.0000000256408830e+06  1.9994594427613413e+06  1.9997902671583625e+06  1.9982446148036686e+06  1.9998408376057225e+06  1.9996304928663839e+06  2.4853985792371985e+06  2.0542457354619696e+06  2.1343353740443997e+06  2.0000000000011101e+06  1.9999993718224328e+06  1.9999983944296103e+06  2.0000049145230802e+06  2.0000742058894045e+06  1.9999997629515366e+06  1.9999999441041402e+06  1.9999999612067973e+06  2.0000361718386633e+06  2.0001185923368845e+06  2.0002808508415299e+06  2.0000000023331565e+06  2.0000002427124809e+06  2.0000115468933247e+06  1.9999998044129382e+06  1.9999998657411449e+06  1.9999999244733837e+06  2.0000038255047549e+06  2.0000021109443754e+06  2.2848625808983953e+06  1.9999999859115032e+06  2.0004860596855911e+06  2.0000000006382721e+06  1.9999999994691366e+06  2.0000014110732176e+06  2.00000145246