<?xml version="1.0"?>
<VTKFile type="UnstructuredGrid"  version="0.1"  >
<UnstructuredGrid>
<Piece  NumberOfPoints="2121" NumberOfCells="4000">
<Points>
<DataArray  type="Float64"  NumberOfComponents="3"  format="ascii">0 0 0  0.01 0 0  0.02 0 0  0.03 0 0  0.04 0 0  0.05 0 0  0.06 0 0  0.07000000000000001 0 0  0.08 0 0  0.09 0 0  0.1 0 0  0.11 0 0  0.12 0 0  0.13 0 0  0.14 0 0  0.15 0 0  0.16 0 0  0.17 0 0  0.18 0 0  0.19 0 0  0.2 0 0  0.21 0 0  0.22 0 0  0.23 0 0  0.24 0 0  0.25 0 0  0.26 0 0  0.27 0 0  0.28 0 0  0.29 0 0  0.3 0 0  0.31 0 0  0.32 0 0  0.33 0 0  0.34 0 0  0.35 0 0  0.36 0 0  0.37 0 0  0.38 0 0  0.39 0 0  0.4 0 0  0.41 0 0  0.42 0 0  0.43 0 0  0.44 0 0  0.45 0 0  0.46 0 0  0.47 0 0  0.48 0 0  0.49 0 0  0.5 0 0  0.51 0 0  0.52 0 0  0.53 0 0  0.54 0 0  0.55 0 0  0.5600000000000001 0 0  0.57 0 0  0.58 0 0  0.59 0 0  0.6 0 0  0.61 0 0  0.62 0 0  0.63 0 0  0.64 0 0  0.65 0 0  0.66 0 0  0.67 0 0  0.68 0 0  0.6899999999999999 0 0  0.7 0 0  0.71 0 0  0.72 0 0  0.73 0 0  0.74 0 0  0.75 0 0  0.76 0 0  0.77 0 0  0.78 0 0  0.79 0 0  0.8 0 0  0.8100000000000001 0 0  0.82 0 0  0.83 0 0  0.84 0 0  0.85 0 0  0.86 0 0  0.87 0 0  0.88 0 0  0.89 0 0  0.9 0 0  0.91 0 0  0.92 0 0  0.93 0 0  0.9399999999999999 0 0  0.95 0 0  0.96 0 0  0.97 0 0  0.98 0 0  0.99 0 0  1 0 0  0 0.01 0  0.01 0.01 0  0.02 0.01 0  0.03 0.01 0  0.04 0.01 0  0.05 0.01 0  0.06 0.01 0  0.07000000000000001 0.01 0  0.08 0.01 0  0.09 0.01 0  0.1 0.01 0  0.11 0.01 0  0.12 0.01 0  0.13 0.01 0  0.14 0.01 0  0.15 0.01 0  0.16 0.01 0  0.17 0.01 0  0.18 0.01 0  0.19 0.01 0  0.2 0.01 0  0.21 0.01 0  0.22 0.01 0  0.23 0.01 0  0.24 0.01 0  0.25 0.01 0  0.26 0.01 0  0.27 0.01 0  0.28 0.01 0  0.29 0.01 0  0.3 0.01 0  0.31 0.01 0  0.32 0.01 0  0.33 0.01 0  0.34 0.01 0  0.35 0.01 0  0.36 0.01 0  0.37 0.01 0  0.38 0.01 0  0.39 0.01 0  0.4 0.01 0  0.41 0.01 0  0.42 0.01 0  0.43 0.01 0  0.44 0.01 0  0.45 0.01 0  0.46 0.01 0  0.47 0.01 0  0.48 0.01 0  0.49 0.01 0  0.5 0.01 0  0.51 0.01 0  0.52 0.01 0  0.53 0.01 0  0.54 0.01 0  0.55 0.01 0  0.5600000000000001 0.01 0  0.57 0.01 0  0.58 0.01 0  0.59 0.01 0  0.6 0.01 0  0.61 0.01 0  0.62 0.01 0  0.63 0.01 0  0.64 0.01 0  0.65 0.01 0  0.66 0.01 0  0.67 0.01 0  0.68 0.01 0  0.6899999999999999 0.01 0  0.7 0.01 0  0.71 0.01 0  0.72 0.01 0  0.73 0.01 0  0.74 0.01 0  0.75 0.01 0  0.76 0.01 0  0.77 0.01 0  0.78 0.01 0  0.79 0.01 0  0.8 0.01 0  0.8100000000000001 0.01 0  0.82 0.01 0  0.83 0.01 0  0.84 0.01 0  0.85 0.01 0  0.86 0.01 0  0.87 0.01 0  0.88 0.01 0  0.89 0.01 0  0.9 0.01 0  0.91 0.01 0  0.92 0.01 0  0.93 0.01 0  0.9399999999999999 0.01 0  0.95 0.01 0  0.96 0.01 0  0.97 0.01 0  0.98 0.01 0  0.99 0.01 0  1 0.01 0  0 0.02 0  0.01 0.02 0  0.02 0.02 0  0.03 0.02 0  0.04 0.02 0  0.05 0.02 0  0.06 0.02 0  0.07000000000000001 0.02 0  0.08 0.02 0  0.09 0.02 0  0.1 0.02 0  0.11 0.02 0  0.12 0.02 0  0.13 0.02 0  0.14 0.02 0  0.15 0.02 0  0.16 0.02 0  0.17 0.02 0  0.18 0.02 0  0.19 0.02 0  0.2 0.02 0  0.21 0.02 0  0.22 0.02 0  0.23 0.02 0  0.24 0.02 0  0.25 0.02 0  0.26 0.02 0  0.27 0.02 0  0.28 0.02 0  0.29 0.02 0  0.3 0.02 0  0.31 0.02 0  0.32 0.02 0  0.33 0.02 0  0.34 0.02 0  0.35 0.02 0  0.36 0.02 0  0.37 0.02 0  0.38 0.02 0  0.39 0.02 0  0.4 0.02 0  0.41 0.02 0  0.42 0.02 0  0.43 0.02 0  0.44 0.02 0  0.45 0.02 0  0.46 0.02 0  0.47 0.02 0  0.48 0.02 0  0.49 0.02 0  0.5 0.02 0  0.51 0.02 0  0.52 0.02 0  0.53 0.02 0  0.54 0.02 0  0.55 0.02 0  0.5600000000000001 0.02 0  0.57 0.02 0  0.58 0.02 0  0.59 0.02 0  0.6 0.02 0  0.61 0.02 0  0.62 0.02 0  0.63 0.02 0  0.64 0.02 0  0.65 0.02 0  0.66 0.02 0  0.67 0.02 0  0.68 0.02 0  0.6899999999999999 0.02 0  0.7 0.02 0  0.71 0.02 0  0.72 0.02 0  0.73 0.02 0  0.74 0.02 0  0.75 0.02 0  0.76 0.02 0  0.77 0.02 0  0.78 0.02 0  0.79 0.02 0  0.8 0.02 0  0.8100000000000001 0.02 0  0.82 0.02 0  0.83 0.02 0  0.84 0.02 0  0.85 0.02 0  0.86 0.02 0  0.87 0.02 0  0.88 0.02 0  0.89 0.02 0  0.9 0.02 0  0.91 0.02 0  0.92 0.02 0  0.93 0.02 0  0.9399999999999999 0.02 0  0.95 0.02 0  0.96 0.02 0  0.97 0.02 0  0.98 0.02 0  0.99 0.02 0  1 0.02 0  0 0.03000000000000001 0  0.01 0.03000000000000001 0  0.02 0.03000000000000001 0  0.03 0.03000000000000001 0  0.04 0.03000000000000001 0  0.05 0.03000000000000001 0  0.06 0.03000000000000001 0  0.07000000000000001 0.03000000000000001 0  0.08 0.03000000000000001 0  0.09 0.03000000000000001 0  0.1 0.03000000000000001 0  0.11 0.03000000000000001 0  0.12 0.03000000000000001 0  0.13 0.03000000000000001 0  0.14 0.03000000000000001 0  0.15 0.03000000000000001 0  0.16 0.03000000000000001 0  0.17 0.03000000000000001 0  0.18 0.03000000000000001 0  0.19 0.03000000000000001 0  0.2 0.03000000000000001 0  0.21 0.03000000000000001 0  0.22 0.03000000000000001 0  0.23 0.03000000000000001 0  0.24 0.03000000000000001 0  0.25 0.03000000000000001 0  0.26 0.03000000000000001 0  0.27 0.03000000000000001 0  0.28 0.03000000000000001 0  0.29 0.03000000000000001 0  0.3 0.03000000000000001 0  0.31 0.03000000000000001 0  0.32 0.03000000000000001 0  0.33 0.03000000000000001 0  0.34 0.03000000000000001 0  0.35 0.03000000000000001 0  0.36 0.03000000000000001 0  0.37 0.03000000000000001 0  0.38 0.03000000000000001 0  0.39 0.03000000000000001 0  0.4 0.03000000000000001 0  0.41 0.03000000000000001 0  0.42 0.03000000000000001 0  0.43 0.03000000000000001 0  0.44 0.03000000000000001 0  0.45 0.03000000000000001 0  0.46 0.03000000000000001 0  0.47 0.03000000000000001 0  0.48 0.03000000000000001 0  0.49 0.03000000000000001 0  0.5 0.03000000000000001 0  0.51 0.03000000000000001 0  0.52 0.03000000000000001 0  0.53 0.03000000000000001 0  0.54 0.03000000000000001 0  0.55 0.03000000000000001 0  0.5600000000000001 0.03000000000000001 0  0.57 0.03000000000000001 0  0.58 0.03000000000000001 0  0.59 0.03000000000000001 0  0.6 0.03000000000000001 0  0.61 0.03000000000000001 0  0.62 0.03000000000000001 0  0.63 0.03000000000000001 0  0.64 0.03000000000000001 0  0.65 0.03000000000000001 0  0.66 0.03000000000000001 0  0.67 0.03000000000000001 0  0.68 0.03000000000000001 0  0.6899999999999999 0.03000000000000001 0  0.7 0.03000000000000001 0  0.71 0.03000000000000001 0  0.72 0.03000000000000001 0  0.73 0.03000000000000001 0  0.74 0.03000000000000001 0  0.75 0.03000000000000001 0  0.76 0.03000000000000001 0  0.77 0.03000000000000001 0  0.78 0.03000000000000001 0  0.79 0.03000000000000001 0  0.8 0.03000000000000001 0  0.8100000000000001 0.03000000000000001 0  0.82 0.03000000000000001 0  0.83 0.03000000000000001 0  0.84 0.03000000000000001 0  0.85 0.03000000000000001 0  0.86 0.03000000000000001 0  0.87 0.03000000000000001 0  0.88 0.03000000000000001 0  0.89 0.03000000000000001 0  0.9 0.03000000000000001 0  0.91 0.03000000000000001 0  0.92 0.03000000000000001 0  0.93 0.03000000000000001 0  0.9399999999999999 0.03000000000000001 0  0.95 0.03000000000000001 0  0.96 0.03000000000000001 0  0.97 0.03000000000000001 0  0.98 0.03000000000000001 0  0.99 0.03000000000000001 0  1 0.03000000000000001 0  0 0.04 0  0.01 0.04 0  0.02 0.04 0  0.03 0.04 0  0.04 0.04 0  0.05 0.04 0  0.06 0.04 0  0.07000000000000001 0.04 0  0.08 0.04 0  0.09 0.04 0  0.1 0.04 0  0.11 0.04 0  0.12 0.04 0  0.13 0.04 0  0.14 0.04 0  0.15 0.04 0  0.16 0.04 0  0.17 0.04 0  0.18 0.04 0  0.19 0.04 0  0.2 0.04 0  0.21 0.04 0  0.22 0.04 0  0.23 0.04 0  0.24 0.04 0  0.25 0.04 0  0.26 0.04 0  0.27 0.04 0  0.28 0.04 0  0.29 0.04 0  0.3 0.04 0  0.31 0.04 0  0.32 0.04 0  0.33 0.04 0  0.34 0.04 0  0.35 0.04 0  0.36 0.04 0  0.37 0.04 0  0.38 0.04 0  0.39 0.04 0  0.4 0.04 0  0.41 0.04 0  0.42 0.04 0  0.43 0.04 0  0.44 0.04 0  0.45 0.04 0  0.46 0.04 0  0.47 0.04 0  0.48 0.04 0  0.49 0.04 0  0.5 0.04 0  0.51 0.04 0  0.52 0.04 0  0.53 0.04 0  0.54 0.04 0  0.55 0.04 0  0.5600000000000001 0.04 0  0.57 0.04 0  0.58 0.04 0  0.59 0.04 0  0.6 0.04 0  0.61 0.04 0  0.62 0.04 0  0.63 0.04 0  0.64 0.04 0  0.65 0.04 0  0.66 0.04 0  0.67 0.04 0  0.68 0.04 0  0.6899999999999999 0.04 0  0.7 0.04 0  0.71 0.04 0  0.72 0.04 0  0.73 0.04 0  0.74 0.04 0  0.75 0.04 0  0.76 0.04 0  0.77 0.04 0  0.78 0.04 0  0.79 0.04 0  0.8 0.04 0  0.8100000000000001 0.04 0  0.82 0.04 0  0.83 0.04 0  0.84 0.04 0  0.85 0.04 0  0.86 0.04 0  0.87 0.04 0  0.88 0.04 0  0.89 0.04 0  0.9 0.04 0  0.91 0.04 0  0.92 0.04 0  0.93 0.04 0  0.9399999999999999 0.04 0  0.95 0.04 0  0.96 0.04 0  0.97 0.04 0  0.98 0.04 0  0.99 0.04 0  1 0.04 0  0 0.05 0  0.01 0.05 0  0.02 0.05 0  0.03 0.05 0  0.04 0.05 0  0.05 0.05 0  0.06 0.05 0  0.07000000000000001 0.05 0  0.08 0.05 0  0.09 0.05 0  0.1 0.05 0  0.11 0.05 0  0.12 0.05 0  0.13 0.05 0  0.14 0.05 0  0.15 0.05 0  0.16 0.05 0  0.17 0.05 0  0.18 0.05 0  0.19 0.05 0  0.2 0.05 0  0.21 0.05 0  0.22 0.05 0  0.23 0.05 0  0.24 0.05 0  0.25 0.05 0  0.26 0.05 0  0.27 0.05 0  0.28 0.05 0  0.29 0.05 0  0.3 0.05 0  0.31 0.05 0  0.32 0.05 0  0.33 0.05 0  0.34 0.05 0  0.35 0.05 0  0.36 0.05 0  0.37 0.05 0  0.38 0.05 0  0.39 0.05 0  0.4 0.05 0  0.41 0.05 0  0.42 0.05 0  0.43 0.05 0  0.44 0.05 0  0.45 0.05 0  0.46 0.05 0  0.47 0.05 0  0.48 0.05 0  0.49 0.05 0  0.5 0.05 0  0.51 0.05 0  0.52 0.05 0  0.53 0.05 0  0.54 0.05 0  0.55 0.05 0  0.5600000000000001 0.05 0  0.57 0.05 0  0.58 0.05 0  0.59 0.05 0  0.6 0.05 0  0.61 0.05 0  0.62 0.05 0  0.63 0.05 0  0.64 0.05 0  0.65 0.05 0  0.66 0.05 0  0.67 0.05 0  0.68 0.05 0  0.6899999999999999 0.05 0  0.7 0.05 0  0.71 0.05 0  0.72 0.05 0  0.73 0.05 0  0.74 0.05 0  0.75 0.05 0  0.76 0.05 0  0.77 0.05 0  0.78 0.05 0  0.79 0.05 0  0.8 0.05 0  0.8100000000000001 0.05 0  0.82 0.05 0  0.83 0.05 0  0.84 0.05 0  0.85 0.05 0  0.86 0.05 0  0.87 0.05 0  0.88 0.05 0  0.89 0.05 0  0.9 0.05 0  0.91 0.05 0  0.92 0.05 0  0.93 0.05 0  0.9399999999999999 0.05 0  0.95 0.05 0  0.96 0.05 0  0.97 0.05 0  0.98 0.05 0  0.99 0.05 0  1 0.05 0  0 0.06000000000000001 0  0.01 0.06000000000000001 0  0.02 0.06000000000000001 0  0.03 0.06000000000000001 0  0.04 0.06000000000000001 0  0.05 0.06000000000000001 0  0.06 0.06000000000000001 0  0.07000000000000001 0.06000000000000001 0  0.08 0.06000000000000001 0  0.09 0.06000000000000001 0  0.1 0.06000000000000001 0  0.11 0.06000000000000001 0  0.12 0.
[...]
<PointData  Scalars="f_34"> 
<DataArray  type="Float64"  Name="f_34"  format="ascii">3.8466937312572739e+01  2.8115764027985115e+01  2.4134307042259916e+01  2.2671916524778105e+01  2.1713529648758854e+01  2.1105804398779767e+01  2.0692965467627467e+01  2.0399580244643019e+01  2.0181536118502038e+01  2.0010548671536796e+01  1.9867970589644312e+01  1.9741132383786351e+01  1.9621380318140577e+01  1.9502867303891811e+01  1.9381756289527544e+01  1.9255664521850914e+01  1.9123258730766192e+01  1.8983952772368699e+01  1.8837679218950761e+01  1.8684716774350441e+01  1.8525560971267765e+01  1.8360828812856489e+01  1.8191190046849670e+01  1.8017319183859531e+01  1.7839863468202619e+01  1.7659422907287635e+01  1.7476539221859603e+01  1.7291691220915169e+01  1.7105294646150536e+01  1.6917704981668535e+01  1.6729222094669542e+01  1.6540095871749660e+01  1.6350532252494673e+01  1.6160699247161777e+01  1.5970732666670695e+01  1.5780741399282649e+01  1.5590812145935850e+01  1.5401013581466140e+01  1.5211399946731158e+01  1.5022014101318808e+01  1.4832890081316462e+01  1.4644055214237687e+01  1.4455531845766656e+01  1.4267338732211650e+01  1.4079492149421815e+01  1.3892006764688057e+01  1.3704896313151432e+01  1.3518174115253625e+01  1.3331853466817149e+01  1.3145947929024297e+01  1.2960471541577226e+01  1.2775438979239285e+01  1.2590865669432329e+01  1.2406767886892668e+01  1.2223162840469870e+01  1.2040068767048947e+01  1.1857505048332914e+01  1.1675492367806628e+01  1.1494052927638991e+01  1.1313210748719069e+01  1.1132992081162559e+01  1.0953425957787275e+01  1.0774544928927227e+01  1.0596386023422308e+01  1.0418991987572729e+01  1.0242412860720204e+01  1.0066707952507265e+01  9.8919482919251607e+00  9.7182196210137874e+00  9.5456260049715382e+00  9.3742941240762292e+00  9.2043782987393570e+00  9.0360662750980065e+00  8.8695857619853218e+00  8.7052116584335835e+00  8.5432738418976708e+00  8.3841652999787524e+00  8.2283502837562104e+00  8.0763720423842447e+00  7.9288595747842479e+00  7.7865327174214132e+00  7.6502047949133072e+00  7.5207820119379525e+00  7.3992587773202896e+00  7.2867082288101921e+00  7.1842673498351113e+00  7.0931161790581223e+00  7.0144506284940258e+00  6.9494481628466254e+00  6.8992250755827760e+00  6.8647844883027584e+00  6.8469457314744471e+00  6.8462811161811166e+00  6.8630618068724374e+00  6.8965788080734951e+00  6.9494574621352045e+00  7.0135595305780178e+00  7.1023654594394765e+00  7.5295649920267111e+00  6.7930092445295784e+00  4.1574286101781732e+00  2.4080556683698635e+01  2.5356376581619156e+01  2.4359672964784664e+01  2.3015520731216117e+01  2.2101125671399128e+01  2.1496426784971259e+01  2.1052894863957420e+01  2.0718489775866132e+01  2.0454557997160659e+01  2.0236804614563344e+01  2.0048758604276035e+01  1.9879057032374160e+01  1.9719829785253651e+01  1.9565645965039515e+01  1.9412819419225617e+01  1.9258924247537895e+01  1.9102446421069573e+01  1.8942527437716095e+01  1.8778773081940916e+01  1.8611109999479712e+01  1.8439678333114248e+01  1.8264752018772608e+01  1.8086680469189808e+01  1.7905846806155882e+01  1.7722638829667847e+01  1.7537429690096232e+01  1.7350565843417403e+01  1.7162360367328819e+01  1.6973090124697602e+01  1.6782995597259593e+01  1.6592282488109429e+01  1.6401124415354804e+01  1.6209666198882683e+01  1.6018027384110457e+01  1.5826305757132932e+01  1.5634580690059526e+01  1.5442916218579043e+01  1.5251363799986398e+01  1.5059964732755505e+01  1.4868752241126602e+01  1.4677753242765581e+01  1.4486989826232021e+01  1.4296480469421132e+01  1.4106241031610718e+01  1.3916285551212937e+01  1.3726626879497521e+01  1.3537277178110619e+01  1.3348248305388640e+01  1.3159552113701402e+01  1.2971200677539889e+01  1.2783206469847377e+01  1.2595582502469314e+01  1.2408342445403292e+01  1.2221500739142922e+01  1.2035072714518776e+01  1.1849074735485795e+01  1.1663524381945983e+01  1.1478440692361387e+01  1.1293844489292038e+01  1.1109758815464673e+01  1.0926209513158881e+01  1.0743225985981034e+01  1.0560842189087971e+01  1.0379097901508556e+01  1.0198040342203688e+01  1.0017726199319563e+01  9.8382241489819897e+00  9.6596179450556114e+00  9.4820101628874340e+00  9.3055266765302083e+00  9.1303219372688922e+00  8.9565850986361824e+00  8.7845469946207171e+00  8.6144879188868657e+00  8.4467460668777239e+00  8.2817263828480545e+00  8.1199093927829367e+00  7.9618593945848639e+00  7.8082311131947222e+00  7.6597736083593047e+00  7.5173298496606842e+00  7.3818299585104485e+00  7.2542756803656738e+00  7.1357132195529811e+00  7.0271911678978336e+00  6.9296998841551440e+00  6.8440882581119418e+00  6.7709530782146237e+00  6.7104946439706517e+00  6.6623287940567684e+00  6.6252367944476074e+00  6.5968183259736737e+00  6.5729795799117090e+00  6.5470132144127682e+00  6.5083068826963997e+00  6.4385631413499658e+00  6.2998463473567563e+00  6.0466130083205973e+00  5.3115986525500238e+00  3.5672135940672676e+00  3.0045925895113026e+00  2.1450788909448264e+01  2.2749752151061120e+01  2.2715444947547240e+01  2.2303697558726313e+01  2.1868751512158692e+01  2.1458702923913904e+01  2.1112068066746382e+01  2.0822427719010680e+01  2.0573432124005194e+01  2.0353490975574548e+01  2.0153156498920040e+01  1.9965518073615179e+01  1.9785577470037492e+01  1.9609797387671176e+01  1.9435732518706413e+01  1.9261742833252079e+01  1.9086776600410843e+01  1.8910206882163138e+01  1.8731708876149742e+01  1.8551168157871267e+01  1.8368612314389832e+01  1.8184160352094505e+01  1.7997985663179676e+01  1.7810289358832783e+01  1.7621281521732328e+01  1.7431168478732893e+01  1.7240144606734525e+01  1.7048387502431893e+01  1.6856055597225385e+01  1.6663287499810668e+01  1.6470202512049934e+01  1.6276901896223343e+01  1.6083470578860890e+01  1.5889979062182103e+01  1.5696485381825504e+01  1.5503037002252443e+01  1.5309672581170043e+01  1.5116423564132333e+01  1.4923315591918335e+01  1.4730369718346854e+01  1.4537603446078348e+01  1.4345031594194078e+01  1.4152667014689154e+01  1.3960521176479862e+01  1.3768604635583239e+01  1.3576927409402360e+01  1.3385499271768092e+01  1.3194329984026401e+01  1.3003429475962010e+01  1.2812807989182524e+01  1.2622476194563951e+01  1.2432445294777091e+01  1.2242727122760853e+01  1.2053334247396142e+01  1.1864280098489655e+01  1.1675579124807765e+01  1.1487247001071449e+01  1.1299300902865264e+01  1.1111759872134005e+01  1.0924645300603787e+01  1.0737981563920677e+01  1.0551796845593973e+01  1.0366124196880223e+01  1.0181002886437495e+01  9.9964801013451456e+00  9.8126130689566189e+00  9.6294716756110237e+00  9.4471416630759713e+00  9.2657284846976538e+00  9.0853618988407643e+00  8.9062013641560416e+00  8.7284422760252571e+00  8.5523230407977877e+00  8.3781329178230184e+00  8.2062204602764268e+00  8.0370022438772484e+00  7.8709713747595904e+00  7.7087049990034338e+00  7.5508696791116900e+00  7.3982230396081450e+00  7.2516094980401666e+00  7.1119471774756846e+00  6.9802022381302429e+00  6.8573458745516334e+00  6.7442881081894965e+00  6.6417812428928960e+00  6.5502843207727253e+00  6.4697777293075305e+00  6.3995133075812323e+00  6.3376776376527895e+00  6.2809300852448571e+00  6.2237441236770223e+00  6.1573988039904162e+00  6.0683406153063899e+00  5.9352588703674138e+00  5.7227610126966537e+00  5.3731423532602633e+00  4.7773051743981760e+00  3.7580900128619823e+00  3.0166747745966682e+00  4.3711348036267879e+00  1.9929873328144424e+01  2.0756578616237576e+01  2.1296648379767976e+01  2.1443819500158625e+01  2.1345934595833072e+01  2.1166091704231388e+01  2.0968374114035704e+01  2.0768046202394107e+01  2.0571566580014007e+01  2.0379736109391985e+01  2.0191290352860264e+01  2.0004867864942874e+01  1.9819281526788753e+01  1.9633676154642242e+01  1.9447494041749422e+01  1.9260411549472671e+01  1.9072273992454019e+01  1.8883041675057466e+01  1.8692749180786258e+01  1.8501476142480801e+01  1.8309326914273683e+01  1.8116416751164380e+01  1.7922862613875882e+01  1.7728777225915412e+01  1.7534265416007624e+01  1.7339422071229460e+01  1.7144331225353820e+01  1.6949065939876863e+01  1.6753688725007912e+01  1.6558252310718622e+01  1.6362800624279501e+01  1.6167369866512310e+01  1.5971989607765638e+01  1.5776683847811073e+01  1.5581472002712646e+01  1.5386369796540604e+01  1.5191390047261836e+01  1.4996543344533251e+01  1.4801838623115444e+01  1.4607283639446710e+01  1.4412885361210920e+01  1.4218650280757464e+01  1.4024584663469156e+01  1.3830694741693298e+01  1.3636986864224019e+01  1.3443467610311190e+01  1.3250143876310569e+01  1.3057022942200534e+01  1.2864112524533921e+01  1.2671420821838085e+01  1.2478956558364475e+01  1.2286729032080737e+01  1.2094748173305957e+01  1.1903024621178194e+01  1.1711569826408327e+01  1.1520396190548999e+01  1.1329517254227762e+01  1.1138947949733112e+01  1.0948704936822349e+01  1.0758807044810069e+01  1.0569275848988150e+01  1.0380136415012077e+01  1.0191418251223427e+01  1.0003156515704699e+01  9.8153935320593622e+00  9.6281806749193475e+00  9.4415806926916126e+00  9.2556705398457666e+00  9.0705447932223944e+00  8.8863197242371044e+00  8.7031380893455861e+00  8.5211746807559745e+00  8.3406426437703320e+00  8.1618005090257384e+00  7.9849597984583243e+00  7.8104929298976717e+00  7.6388409496085474e+00  7.4705203415395580e+00  7.3061277659040611e+00  7.1463410298867789e+00  6.9919138439631094e+00  6.8436609186299240e+00  6.7024286610266346e+00  6.5690451036553119e+00  6.4442407254179992e+00  6.3285295144801346e+00  6.2220369529403801e+00  6.1242584011755463e+00  6.0337270042351561e+00  5.9475631727604661e+00  5.8608649009693279e+00  5.7658736872647012e+00  5.6508113622828819e+00  5.4982432736479492e+00  5.2827626752409262e+00  4.9688248105399460e+00  4.5124947889803533e+00  3.8827227632554879e+00  3.2651483831653532e+00  3.4356418997123757e+00  4.6412735934796947e+00  1.9031954492621633e+01  1.9702098944330810e+01  2.0273487190310743e+01  2.0599474702255844e+01  2.0741676769556257e+01  2.0765234936445395e+01  2.0712707866608397e+01  2.0614272671590630e+01  2.0487036877014653e+01  2.0339888053861369e+01  2.0178358880255427e+01  2.0006110138129404e+01  1.9825750596790645e+01  1.9639276200698411e+01  1.9448251883745705e+01  1.9253916951198757e+01  1.9057246809994695e+01  1.8858998781048356e+01  1.8659750262386705e+01  1.8459932199491792e+01  1.8259858470610432e+01  1.8059751179024037e+01  1.7859761879326388e+01  1.7659988955317985e+01  1.7460491534167431e+01  1.7261300412684641e+01  1.7062426491960331e+01  1.6863867188290762e+01  1.6665611233610782e+01  1.6467642214306181e+01  1.6269941133930061e+01  1.6072488228518484e+01  1.5875264215053530e+01  1.5678251114251532e+01  1.5481432757420269e+01  1.5284795062253055e+01  1.5088326143009947e+01  1.4892016305247209e+01  1.4695857963323117e+01  1.4499845509495865e+01  1.4303975156096412e+01  1.4108244766459659e+01  1.3912653685807559e+01  1.3717202579810202e+01  1.3521893285949201e+01  1.3326728680813346e+01  1.3131712565169151e+01  1.2936849567669704e+01  1.2742145067642216e+01  1.2547605137178708e+01  1.2353236502939417e+01  1.2159046528508144e+01  1.1965043218793268e+01  1.1771235249037584e+01  1.1577632022137257e+01  1.1384243759693486e+01  1.1191081634088841e+01  1.0998157951229212e+01  1.0805486396485492e+01  1.0613082359558181e+01  1.0420963357950715e+01  1.0229149583092006e+01  1.0037664598210750e+01  9.8465362225534410e+00  9.6557976425961982e+00  9.4654887970694279e+00  9.2756580888706672e+00  9.0863644825451786e+00  8.8976800503332996e+00  8.7096930317312946e+00  8.5225114691513806e+00  8.3362674734529616e+00  8.1511221535019978e+00  7.9672712082521695e+00  7.7849511189180562e+00  7.6044457797316358e+00  7.4260932485416200e+00  7.2502920542777209e+00  7.0775061249192310e+00  6.9082668397202909e+00  6.7431698865025460e+00  6.5828634266542334e+00  6.4280224372706796e+00  6.2793019281186027e+00  6.1372589952051317e+00  6.0022304653900047e+00  5.8741494904085334e+00  5.7522813933819403e+00  5.6348571704435422e+00  5.5185835882532368e+00  5.3980143753620071e+00  5.2647855681434139e+00  5.1067781461376711e+00  4.9074541673383045e+00  4.6462555985688425e+00  4.3030539198525295e+00  3.8747895772106680e+00  3.4365336219232381e+00  3.2724976159392862e+00  3.7404104103003988e+00  4.6841737573634612e+00  1.8450621185575105e+01  1.8992806562504924e+01  1.9515321952727291e+01  1.9924676091463837e+01  2.0201622406947269e+01  2.0357819820519861e+01  2.0421552520443569e+01  2.0416236591293618e+01  2.0358461800418890e+01  2.0260748344442984e+01  2.0132608854092179e+01  1.9981331602888197e+01  1.9812658889779733e+01  1.9631137475836528e+01  1.9440353667351900e+01  1.9243108783369451e+01  1.9041557135242364e+01  1.8837324259001459e+01  1.8631609089764183e+01  1.8425272109822796e+01  1.8218910170476388e+01  1.8012918761083291e+01  1.7807542778778995e+01  1.7602917105533724e+01  1.7399098426519750e+01  1.7196089723623057e+01  1.6993858784674909e+01  1.6792351921256941e+01  1.6591503917665328e+01  1.6391245062918340e+01  1.6191505959778020e+01  1.5992220665979881e+01  1.5793328605315248e+01  1.5594775589067289e+01  1.5396514209552988e+01  1.5198503804578547e+01  1.5000710141895675e+01  1.4803104933745276e+01  1.4605665261378366e+01  1.4408372966151303e+01  1.4211214046046511e+01  1.4014178083162795e+01  1.3817257717757597e+01  1.3620448177237455e+01  1.3423746863347287e+01  1.3227152997287526e+01  1.3030667320216835e+01  1.2834291845164111e+01  1.2638029655806518e+01  1.2441884747281213e+01  1.2245861904526171e+01  1.2049966614066799e+01  1.1854205005904195e+01  1.1658583823017725e+01  1.1463110417068618e+01  1.1267792770016625e+01  1.1072639542778157e+01  1.0877660153565170e+01  1.0682864890386250e+01  1.0488265064227623e+01  1.0293873211946316e+01  1.0099703360746256e+01  9.9057713694838636e+00  9.7120953659918552e+00  9.5186963042122432e+00  9.3255986701740898e+00  9.1328313718835723e+00  8.9404288548835709e+00  8.7484324925694921e+00  8.5568923079276153e+00  8.3658690907115520e+00  8.1754369798473139e+00  7.9856865831299562e+00  7.7967287008825030e+00  7.6086987006510647e+00  7.4217615447063761e+00  7.2361173822795948e+00  7.0520074540744266e+00  6.8697197712966460e+00  6.6895935568291716e+00  6.5120206756286594e+00  6.3374411100997330e+00  6.1663278079348300e+00  5.9991538115910874e+00  5.8363314224841689e+00  5.6781094399818510e+00  5.5244108944601793e+00  5.3745916570665271e+00  5.2271027656983842e+00  5.0790516268658212e+00  4.9256896450062424e+00  4.7599283833259811e+00  4.5721542092606287e+00  4.3510057502032735e+00  4.0867373274729646e+00  3.7808680637447809e+00  3.4704246368521949e+00  3.2745656368139842e+00  3.3961672770943143e+00  3.9401491760374561e+00  4.7512520390963342e+00  1.8052379045785926e+01  1.8516676505357946e+01  1.8994702818860581e+01  1.9419773684082728e+01  1.9756824796483823e+01  1.9996559125416024e+01  2.0145472557044567e+01  2.0214765340493649e+01  2.0217464377653478e+01  2.0165968187588181e+01  2.0071228145307963e+01  1.9942697229814371e+01  1.9788345964245853e+01  1.9614741099980254e+01  1.9427184515004537e+01  1.9229867861357313e+01  1.9026034740152774e+01  1.8818139346970170e+01  1.8607993275112147e+01  1.8396896186004465e+01  1.8185748247955530e+01  1.7975144258961702e+01  1.7765450582361751e+01  1.7556866723532160e+01  1.7349473669939822e+01  1.7143271142917268e+01  1.6938205773566079e+01  1.6734191994576388e+01  1.6531127187010231e+01  1.6328902368747123e+01  1.6127409477743097e+01  1.5926546097132892e+01  1.5726218293334592e+01  1.5526342091631189e+01  1.5326843993750135e+01  1.5127660845172947e+01  1.4928739282925234e+01  1.4730034933756476e+01  1.4531511485509432e+01  1.4333139717909557e+01  1.4134896551306502e+01  1.3936764151137552e+01  1.3738729110440804e+01  1.3540781721650115e+01  1.3342915341090908e+01  1.3145125844229669e+01  1.2947411166274234e+01  1.2749770920635417e+01  1.2552206086732276e+01  1.2354718758120715e+01  1.2157311942186810e+01  1.1959989402834752e+01  1.1762755538280638e+01  1.1565615286608185e+01  1.1368574052443687e+01  1.1171637648699971e+01  1.0974812247990361e+01  1.0778104338960731e+01  1.0581520683386714e+01  1.0385068270677294e+01  1.0188754267346448e+01  9.9925859601550400e+00  9.7965706933091248e+00  9.6007158022557508e+00  9.4050285497075290e+00  9.2095160737480217e+00  9.0141853635715847e+00  8.8190432860832910e+00  8.6240966968841999e+00  8.4293526823302631e+00  8.2348189963626197e+00  8.0405047765492501e+00  7.8464216484048874e+00  7.6525853537490214e+00  7.4590180644377755e+00  7.2657515591980104e+00  7.0728314347138683e+00  6.8803224673549410e+00  6.6883150980796717e+00  6.4969327152625143e+00  6.3063388625099739e+00  6.1167425679396210e+00  5.9283985122074148e+00  5.7415965562411877e+00  5.5566321505077454e+00  5.3737455360698068e+00  5.1930142733356641e+00  5.0141826920713495e+00  4.8364180285719209e+00  4.6580053167157107e+00  4.4760479884491158e+00  4.2863585910589128e+00  4.0839593938237586e+00  3.8650715728355922e+00  3.6322833828074343e+00  3.4057040605424507e+00  3.2419530022425960e+00  3.2455882704776116e+00  3.5221994027731691e+00  4.0804306165675817e+00  4.8139724875312444e+00  1.7780802089774305e+01  1.8194523659689956e+01  1.8634568866654355e+01  1.9054724671360763e+01  1.9419904860371759e+01  1.9708742035282508e+01  1.9913902434871762e+01  2.0037643579201330e+01  2.0087789747256945e+01  2.0074557993543724e+01  2.0008846634895669e+01  1.9901096386404916e+01  1.9760661510562361e+01  1.9595551529644791e+01  1.9412386582567976e+01  1.9216478265338317e+01  1.9011977332374254e+01  1.8802046329169151e+01  1.8589032949450985e+01  1.8374630436130563e+01  1.8160018439157099e+01  1.7945982265113241e+01  1.7733011026246107e+01  1.7521376578982942e+01  1.7311195741382488e+01  1.7102478416156210e+01  1.6895164122427204e+01  1.6689149185280346e+01  1.6484306526998875e+01  1.6280499693962270e+01  1.6077592463540213e+01  1.5875455117852978e+01  1.5673968249843309e+01  1.5473024781197205e+01  1.5272530718468886e+01  1.5072405049359391e+01  1.4872579081410414e+01  1.4672995446422554e+01  1.4473606932186589e+01  1.4274375255269902e+01  1.4075269852218987e+01  1.3876266739096407e+01  1.3677347469002290e+01  1.3478498202542047e+01  1.3279708895887509e+01  1.3080972603893887e+01  1.2882284891178717e+01  1.2683643341214326e+01  1.2485047151863538e+01  1.2286496805154748e+01  1.2087993798916390e+01  1.1889540428038352e+01  1.1691139603464578e+01  1.1492794697302314e+01  1.1294509402643007e+01  1.1096287596776451e+01  1.0898133196353502e+01  1.0700049992741112e+01  1.0502041455417571e+01  1.0304110490621326e+01  1.0106259142033114e+01  9.9084882197176238e+00  9.7107968436446832e+00  9.5131818885156516e+00  9.3156373183397161e+00  9.1181534021606296e+00  8.9207158077386666e+00  8.7233045781734244e+00  8.5258930090230560e+00  8.3284464611787001e+00  8.1309211696587802e+00  7.9332631417318122e+00  7.7354072814202421e+00  7.5372769320843229e+00  7.3387840947887648e+00  7.1398306543898604e+00  6.9403110210256473e+00  6.7401166564620043e+00  6.5391429755693524e+00  6.3372990462569119e+00  6.1345202836950241e+00  5.9307838388278169e+00  5.7261254744339407e+00  5.5206552441155869e+00  5.3145671329499127e+00  5.1081351094758967e+00  4.9016855406017061e+00  4.6955358522668176e+00  4.4898968022090120e+00  4.2847611318152792e+00  4.0798634007012238e+00  3.8749245966035328e+00  3.6706302734291816e+00  3.4711547788629908e+00  3.2893920104368792e+00  3.1554977680748029e+00  3.1243596798151860e+00  3.2655996983174873e+00  3.6231752862232187e+00  4.1798507936407416e+00  4.8673844273385365e+00  1.7603363626778410e+01  1.7985194980087932e+01  1.8399112197005728e+01  1.8810608189410580e+01  1.9186807783314212e+01  1.9502096092018693e+01  1.9741998813166912e+01  1.9902106382230336e+01  1.9985602370687165e+01  2.0000404114148207e+01  1.9956722417375481e+01  1.9865265242284433e+01  1.9736145636858634e+01  1.9578299191206547e+01  1.9399255623088468e+01  1.9205133009864454e+01  1.9000753568911467e+01  1.8789814900840330e+01  1.8575076530007664e+01  1.8358538917565905e+01  1.8141603683166288e+01  1.7925210697970652e