<?xml version="1.0"?>
<VTKFile type="UnstructuredGrid"  version="0.1"  >
<UnstructuredGrid>
<Piece  NumberOfPoints="2609" NumberOfCells="4922">
<Points>
<DataArray  type="Float64"  NumberOfComponents="3"  format="ascii">0 0.2 0  0 0 0  1 0 0  1 0.2 0  0.5 0 0  0.5 0.2 0  0.25 0.2 0  0.25 0 0  0.75 0.2 0  0.75 0 0  0.125 0 0  0.125 0.2 0  0.375 0.2 0  0.375 0 0  0.625 0 0  0.625 0.2 0  0.875 0.2 0  0.875 0 0  0.6875 0.1 0  0.5625 0.09999999999999999 0  0.3125 0.09999999999999999 0  0.4375 0.1 0  0.1875 0.1 0  0 0.1 0  0.8125 0.09999999999999999 0  1 0.1 0  0.09375 0.0890625 0  0.90625 0.1109375 0  0.0625 0.2 0  0.9375 0 0  0.0625 0 0  0.9375 0.2 0  1 0.15 0  0.75 0.13046875 0  0.743125 0.06523437500000001 0  0.6875 0 0  0.8125 0.2 0  0.1875 0 0  0.1875 0.2 0  0.25 0.13046875 0  0.243125 0.06523437500000001 0  0.375 0.06953125 0  0.368125 0.134765625 0  0.3125 0.2 0  0.4375 0 0  0.3125 0 0  0.5625 0.2 0  0.625 0.13046875 0  0.618125 0.06523437500000001 0  0.5625 0 0  0.5 0.06953125 0  0.506875 0.134765625 0  0.4375 0.2 0  0.8125 0 0  0.6875 0.2 0  0.9481553398058252 0.06287166262135922 0  0.84375 0.15 0  0 0.05 0  0.05184466019417475 0.1371283373786408 0  0.145 0.05703125000000001 0  0.84375 0.05 0  0.15625 0.15 0  0.1030658125626189 0.1515255078516368 0  0.8969341874373811 0.04847449214836316 0  0.792718974434559 0.05287123402159932 0  0.9554036458333334 0.125 0  0.04459635416666667 0.07500000000000001 0  0.4518017578125 0.05000000000000001 0  0.6691578248170046 0.05000000000000001 0  0.3199267578125 0.15 0  0.5550732421875 0.15 0  0 0.15 0  1 0.05 0  0.7018017578125 0.15 0  0.5481982421875 0.05 0  0.3268017578125 0.05 0  0.4191578248170045 0.15 0  0.1949982879074692 0.0499390066735113 0  0.2059331797235023 0.1537136376728111 0  0.7940668202764977 0.1537136376728111 0  0.4662643004167278 0.1610836493503644 0  0.09935546875000002 0.04101562500000001 0  0.8605643203883495 0.09527457524271844 0  0.890625 0.15546875 0  0.1396289777527457 0.1048462360954661 0  0.40625 0.034765625 0  0.65625 0.165234375 0  0.2810740097268118 0.0362543286448616 0  0.59375 0.2 0  0.2779806263051747 0.165234375 0  0.59375 0 0  0.71875 0 0  0.96875 0 0  0.03125 0 0  0.9616530031741775 0.1661287539677218 0  0.03125 0.2 0  0.2812306203147679 0.07579630920895752 0  0.6517420860611969 0.08475320452844308 0  0.4785050801495401 0.1047760458195694 0  0.3964949198504599 0.1047760458195694 0  0.7751304711039982 0.08796919122954962 0  0.06023980582280569 0.03909739401332891 0  0.5952456834084205 0.1588841203520991 0  0.709652385012882 0.04057042807003697 0  0.5224392170667893 0.1693853886699131 0  0.34375 0.2 0  0.2276313975123068 0.03062205334560838 0  0.2878064413012797 0.1286834853615993 0  0.4204339877699043 0.06807311775992612 0  0.662545337677002 0.1281478881835938 0  0.9253862011026743 0.1658146896287639 0  0.5870724660941802 0.0396661582528333 0  0.15625 0 0  0.3513908387537223 0.1656839402738459 0  0.3869129551193354 0.164922114711397 0  0.5897809475809899 0.123376020987713 0  0.37128662109375 0.034765625 0  0.7171227890186096 0.1185722436797753 0  0.4860315647536819 0.034765625 0  0.2261767578125 0.1 0  0.3421227890186095 0.08142775632022471 0  0.5328772109813904 0.08142775632022471 0  0.2401744288472697 0.165234375 0  0.7360315647536818 0.165234375 0  0.53125 0 0  0.7852271904453858 0.1206603749322895 0  0.34375 0 0  0.78125 0 0  0.7617304217264373 0.03421572296338501 0  0.4548882166590948 0.1291262674944789 0  0.8700571879807737 0.1281370494505113 0  0.65625 0 0  0.6366531504492252 0.03420757940363092 0  0.03129542283913778 0.1652059857255389 0  0.9687045771608622 0.0347940142744611 0  0.7103473238297955 0.07467290562767283 0  0.5374692558242888 0.1218336218188623 0  0.3375307441757111 0.1218336218188623 0  0.5848957879468327 0.07395044821493228 0  0.7438284572973297 0.09813970113213773 0  0.621668283701159 0.09784041403808147 0  0.5197123943460413 0.03178327183020477 0  0.78125 0.2 0  0.9663425996156958 0.09223680218446603 0  0.07131644130861223 0.166167058370832 0  0.06278361397653723 0.1043651395631068 0  0.9164108319316826 0.07749591057950532 0  0.9361952437854323 0.03255987911015318 0  0.90625 0 0  0 0.125 0  0.03071848026402785 0.1118669990016653 0  0.09375 0.2 0  0.171875 0.02787851012328654 0  0.1092144307763404 0.1186823050961979 0  0.21875 0.2 0  0.2677110543832378 0.1043296847204294 0  0.90625 0.2 0  0.28125 0 0  0.40625 0 0  0.09375 0 0  0.46875 0.2 0  0.15625 0.2 0  0.84375 0 0  0.84375 0.2 0  0.65625 0.2 0  0.28125 0.2 0  0.96875 0.2 0  0.53125 0.2 0  0.21875 0 0  0.40625 0.2 0  0.46875 0 0  0.71875 0.2 0  0.9367430731670982 0.1005618768676794 0  0.6250638919939727 0.1686296746855935 0  0.03066695704503597 0.04757131699540026 0  0.4696476224001346 0.07519709874296637 0  0.128583984375 0.030765625 0  0.1229477610931947 0.07876329274911148 0  0.1726515596286658 0.07218390056728334 0  0.08135200656459375 0.1304632915755276 0  0.07367117617846737 0.06630907723691577 0  0.364920716537372 0.1033207399214296 0  0.510079283462628 0.1033207399214296 0  0.8708145383129687 0.06570820807474462 0  0.7644517238097613 0.1564642815248879 0  0.20683837890625 0.07730450638331508 0  0.859375 0.175 0  0.8202713858253524 0.1700914911408453 0  0.1654431066708043 0.1209800666692527 0  0.8385798963609093 0.1184656897744316 0  0.859375 0.025 0  0.8347112894496929 0.07911643090605805 0  0.8171336163141124 0.03186961480367975 0  0.1797286141746476 0.1700914911408453 0  0.1301656075774904 0.1684628797359315 0  0.9260046763071323 0.1348239383805483 0  0.8894824168160766 0.08757844881776053 0  0.2208922345287671 0.1286798859643813 0  0.4949897466230512 0.1609174819802034 0  0.8178764773815543 0.1380510291685585 0  0 0.025 0  0.1293333003666866 0.1394459312768464 0  0.1926202538941903 0.1287721180394608 0  0.734375 0.02447550461714185 0  0.6104437442232596 0.02404740279519573 0  0.7876048686123861 0.02630104216132202 0  0.9763791965474028 0.06570595206519909 0  0.2550159504162929 0.02714488332168314 0  0.02475449253617637 0.1388603364581248 0  0.394588836711733 0.139209086075769 0  0.4285660420121937 0.1250869894546397 0  0.6852748284098915 0.02754806416207705 0  0.676789440676291 0.07556474520402978 0  0.439058915527992 0.1710637680613646 0  0.890625 0.02212959347356643 0  0.4613409083631049 0.02536100754343198 0  0.4335759857361153 0.02877770140518803 0  0.546875 0.0225761034488678 0  0.3441176074448496 0.02799703513256633 0  0.7113409083631049 0.1746389924565681 0  0.6833991048585878 0.1722584415596964 0  0.6445080807531295 0.05938771235965257 0  0.5710147579784668 0.1731836917771822 0  0.3091695592815616 0.07200197410344605 0  0.4802124154991808 0.1381149438061808 0  0.3531209426864378 0.05428706260644136 0  0.6891285423047308 0.1265795824126807 0  0.3181995112792868 0.02541514216595461 0  0.5580194160375702 0.07423620176851081 0  0.328125 0.1785122389515018 0  0.3019798522816674 0.1759253857640147 0  0.4109414080460347 0.1745449980490013 0  0.08064972077107094 0.02268122435920366 0  0.523418502869056 0.05736825659886007 0  1 0.175 0  0 0.07500000000000001 0  0.02240603976669442 0.08769241129714153 0  1 0.125 0  0.9745453722632058 0.143130647650054 0  0.7688757540875548 0.0628787812479088 0  0.7989736914510024 0.07796164400324013 0  0.6427136188057356 0.1121757217023557 0  0.5627873485713789 0.1255942486810033 0  0.2197304078747257 0.05548243234513949 0  0.1976524886263231 0.02400804805111626 0  0.8186930256567032 0.05818265401322384 0  0.727390782376841 0.1415736140746885 0  0.3126463444430307 0.1250970494996423 0  1 0.07500000000000001 0  1 0.025 0  0 0.175 0  0.1551924159184135 0.175 0  0.5294171514872738 0.145439744828038 0  0.4444431162323196 0.07576404134227754 0  0.5955120359408849 0.09785535981907764 0  0.1058647065410281 0.1771957994402266 0  0.203676860498912 0.1792561060865675 0  0.796875 0.1799761139462447 0  0.9216089330674209 0.0529611769029957 0  0.6601524569744324 0.02495275542944236 0  0.6770521443133906 0.1482743347210414 0  0.546112148566345 0.1791475606386017 0  0.03988316212829985 0.02389504108851924 0  0.101911876014792 0.06566429569130908 0  0.1628424881353758 0.09529120931403744 0  0.692146705980565 0.05705880569002558 0  0.261610926129214 0.05010456405573956 0  0.3023351939468626 0.04845883525960867 0  0.9465430989063842 0.1473854863135378 0  0.8828125 0.177734375 0  0.8671875 0.152734375 0  0.9020944499960918 0.1344862653495059 0  0.7635919053482566 0.111120494601587 0  0.484375 0.1821406666411285 0  0.9777018229166666 0.1142371558504118 0  0.9145348779800376 0.02243064180928886 0  0.390625 0.0173828125 0  0.388768310546875 0.05047950316011236 0  0.6446928897399181 0.1441950323967028 0  0.05098778380799309 0.1789348625219776 0  0.7736177475122632 0.177936237612333 0  0.5706954769012093 0.02236722841441926 0  0.5778375673700133 0.1433886845638334 0  0.109375 0.01741177267420408 0  0.6645881596017071 0.1041800932240139 0  0.2588156769254109 0.08264533362407897 0  0.9535700747280548 0.0173772197197408 0  0.3465759789726826 0.1430902180816238 0  0.3980648668800888 0.07964156934319017 0  0.570370727357197 0.05512310615437524 0  0.2904774127992698 0.10601185786648 0  0.8834381839471677 0.1096146921727965 0  0.2959476046910677 0.01819893842086773 0  0.4467720222370625 0.15001894508994 0  0.2975169820110305 0.1536613685968155 0  0.2590775275762222 0.1786632008442237 0  0.2590775275762222 0.1518055491557764 0  0.7206784625702914 0.09555092280834117 0  0.4176438923770348 0.09008914451496701 0  0.609375 0.1842829488147294 0  0.1728349659772391 0.05002118515609507 0  0.8764591061246652 0.0394500262246221 0  0.640625 0.1843465957419332 0  0.9043866940958366 0.1728008411301181 0  0.2066998025241303 0.1114248809947228 0  0.1224189494977393 0.05617209197090772 0  0.5036255823921723 0.04788553975285638 0  0.473794201357861 0.05334205796345066 0  0.1506250175838874 0.03525279662725787 0  0.703125 0 0  0.1789901616956522 0.1471903124355842 0  0.0892343365840102 0.1102669913480182 0  0.1443862076220943 0.08342810716125655 0  0.83712983701919
[...]
<PointData  Vectors="f_23"> 
<DataArray  type="Float64"  Name="f_23"  NumberOfComponents="3" format="ascii">0.0000000000000000e+00 0.0000000000000000e+00 0.0000000000000000e+00  0.0000000000000000e+00 0.0000000000000000e+00 0.0000000000000000e+00  0.0000000000000000e+00 0.0000000000000000e+00 0.0000000000000000e+00  0.0000000000000000e+00 0.0000000000000000e+00 0.0000000000000000e+00  0.0000000000000000e+00 0.0000000000000000e+00 0.0000000000000000e+00  0.0000000000000000e+00 0.0000000000000000e+00 0.0000000000000000e+00  0.0000000000000000e+00 0.0000000000000000e+00 0.0000000000000000e+00  0.0000000000000000e+00 0.0000000000000000e+00 0.0000000000000000e+00  0.0000000000000000e+00 0.0000000000000000e+00 0.0000000000000000e+00  0.0000000000000000e+00 0.0000000000000000e+00 0.0000000000000000e+00  0.0000000000000000e+00 0.0000000000000000e+00 0.0000000000000000e+00  0.0000000000000000e+00 0.0000000000000000e+00 0.0000000000000000e+00  0.0000000000000000e+00 0.0000000000000000e+00 0.0000000000000000e+00  0.0000000000000000e+00 0.0000000000000000e+00 0.0000000000000000e+00  0.0000000000000000e+00 0.0000000000000000e+00 0.0000000000000000e+00  0.0000000000000000e+00 0.0000000000000000e+00 0.0000000000000000e+00  0.0000000000000000e+00 0.0000000000000000e+00 0.0000000000000000e+00  0.0000000000000000e+00 0.0000000000000000e+00 0.0000000000000000e+00  0.0000000000000000e+00 0.0000000000000000e+00 0.0000000000000000e+00  0.0000000000000000e+00 0.0000000000000000e+00 0.0000000000000000e+00  0.0000000000000000e+00 0.0000000000000000e+00 0.0000000000000000e+00  0.0000000000000000e+00 0.0000000000000000e+00 0.0000000000000000e+00  0.0000000000000000e+00 0.0000000000000000e+00 0.0000000000000000e+00  0.0000000000000000e+00 0.0000000000000000e+00 0.0000000000000000e+00  0.0000000000000000e+00 0.0000000000000000e+00 0.0000000000000000e+00  0.0000000000000000e+00 0.0000000000000000e+00 0.0000000000000000e+00  0.0000000000000000e+00 0.0000000000000000e+00 0.0000000000000000e+00  0.0000000000000000e+00 0.0000000000000000e+00 0.0000000000000000e+00  0.0000000000000000e+00 0.0000000000000000e+00 0.0000000000000000e+00  0.0000000000000000e+00 0.0000000000000000e+00 0.0000000000000000e+00  0.0000000000000000e+00 0.0000000000000000e+00 0.0000000000000000e+00  0.0000000000000000e+00 0.0000000000000000e+00 0.0000000000000000e+00  0.0000000000000000e+00 0.0000000000000000e+00 0.0000000000000000e+00  0.0000000000000000e+00 0.0000000000000000e+00 0.0000000000000000e+00  0.0000000000000000e+00 0.0000000000000000e+00 0.0000000000000000e+00  0.0000000000000000e+00 0.0000000000000000e+00 0.0000000000000000e+00  0.0000000000000000e+00 0.0000000000000000e+00 0.0000000000000000e+00  0.0000000000000000e+00 0.0000000000000000e+00 0.0000000000000000e+00  0.0000000000000000e+00 0.0000000000000000e+00 0.0000000000000000e+00  0.0000000000000000e+00 0.0000000000000000e+00 0.0000000000000000e+00  0.0000000000000000e+00 0.0000000000000000e+00 0.0000000000000000e+00  0.0000000000000000e+00 0.0000000000000000e+00 0.0000000000000000e+00  0.0000000000000000e+00 0.0000000000000000e+00 0.0000000000000000e+00  0.0000000000000000e+00 0.0000000000000000e+00 0.0000000000000000e+00  0.0000000000000000e+00 0.0000000000000000e+00 0.0000000000000000e+00  0.0000000000000000e+00 0.0000000000000000e+00 0.0000000000000000e+00  0.0000000000000000e+00 0.0000000000000000e+00 0.0000000000000000e+00  0.0000000000000000e+00 0.0000000000000000e+00 0.0000000000000000e+00  0.0000000000000000e+00 0.0000000000000000e+00 0.0000000000000000e+00  0.0000000000000000e+00 0.0000000000000000e+00 0.0000000000000000e+00  0.0000000000000000e+00 0.0000000000000000e+00 0.0000000000000000e+00  0.0000000000000000e+00 0.0000000000000000e+00 0.0000000000000000e+00  0.0000000000000000e+00 0.0000000000000000e+00 0.0000000000000000e+00  0.0000000000000000e+00 0.0000000000000000e+00 0.0000000000000000e+00  0.0000000000000000e+00 0.0000000000000000e+00 0.0000000000000000e+00  0.0000000000000000e+00 0.0000000000000000e+00 0.0000000000000000e+00  0.0000000000000000e+00 0.0000000000000000e+00 0.0000000000000000e+00  0.0000000000000000e+00 0.0000000000000000e+00 0.0000000000000000e+00  0.0000000000000000e+00 0.0000000000000000e+00 0.0000000000000000e+00  0.0000000000000000e+00 0.0000000000000000e+00 0.0000000000000000e+00  0.0000000000000000e+00 0.0000000000000000e+00 0.0000000000000000e+00  0.0000000000000000e+00 0.0000000000000000e+00 0.0000000000000000e+00  0.0000000000000000e+00 0.0000000000000000e+00 0.0000000000000000e+00  0.0000000000000000e+00 0.0000000000000000e+00 0.0000000000000000e+00  0.0000000000000000e+00 0.0000000000000000e+00 0.0000000000000000e+00  0.0000000000000000e+00 0.0000000000000000e+00 0.0000000000000000e+00  0.0000000000000000e+00 0.0000000000000000e+00 0.0000000000000000e+00  0.0000000000000000e+00 0.0000000000000000e+00 0.0000000000000000e+00  0.0000000000000000e+00 0.0000000000000000e+00 0.0000000000000000e+00  0.0000000000000000e+00 0.0000000000000000e+00 0.0000000000000000e+00  0.0000000000000000e+00 0.0000000000000000e+00 0.0000000000000000e+00  0.0000000000000000e+00 0.0000000000000000e+00 0.0000000000000000e+00  0.0000000000000000e+00 0.0000000000000000e+00 0.0000000000000000e+00  0.0000000000000000e+00 0.0000000000000000e+00 0.0000000000000000e+00  0.0000000000000000e+00 0.0000000000000000e+00 0.0000000000000000e+00  0.0000000000000000e+00 0.0000000000000000e+00 0.0000000000000000e+00  0.0000000000000000e+00 0.0000000000000000e+00 0.0000000000000000e+00  0.0000000000000000e+00 0.0000000000000000e+00 0.0000000000000000e+00  0.0000000000000000e+00 0.0000000000000000e+00 0.0000000000000000e+00  0.0000000000000000e+00 0.0000000000000000e+00 0.0000000000000000e+00  0.0000000000000000e+00 0.0000000000000000e+00 0.0000000000000000e+00  0.0000000000000000e+00 0.0000000000000000e+00 0.0000000000000000e+00  0.0000000000000000e+00 0.0000000000000000e+00 0.0000000000000000e+00  0.0000000000000000e+00 0.0000000000000000e+00 0.0000000000000000e+00  0.0000000000000000e+00 0.0000000000000000e+00 0.0000000000000000e+00  0.0000000000000000e+00 0.0000000000000000e+00 0.0000000000000000e+00  0.0000000000000000e+00 0.0000000000000000e+00 0.0000000000000000e+00  0.0000000000000000e+00 0.0000000000000000e+00 0.0000000000000000e+00  0.0000000000000000e+00 0.0000000000000000e+00 0.0000000000000000e+00  0.0000000000000000e+00 0.0000000000000000e+00 0.0000000000000000e+00  0.0000000000000000e+00 0.0000000000000000e+00 0.0000000000000000e+00  0.0000000000000000e+00 0.0000000000000000e+00 0.0000000000000000e+00  0.0000000000000000e+00 0.0000000000000000e+00 0.0000000000000000e+00  0.0000000000000000e+00 0.0000000000000000e+00 0.0000000000000000e+00  0.0000000000000000e+00 0.0000000000000000e+00 0.0000000000000000e+00  0.0000000000000000e+00 0.0000000000000000e+00 0.0000000000000000e+00  0.0000000000000000e+00 0.0000000000000000e+00 0.0000000000000000e+00  0.0000000000000000e+00 0.0000000000000000e+00 0.0000000000000000e+00  0.0000000000000000e+00 0.0000000000000000e+00 0.0000000000000000e+00  0.0000000000000000e+00 0.0000000000000000e+00 0.0000000000000000e+00  0.0000000000000000e+00 0.0000000000000000e+00 0.0000000000000000e+00  0.0000000000000000e+00 0.0000000000000000e+00 0.0000000000000000e+00  0.0000000000000000e+00 0.0000000000000000e+00 0.0000000000000000e+00  0.0000000000000000e+00 0.0000000000000000e+00 0.0000000000000000e+00  0.0000000000000000e+00 0.0000000000000000e+00 0.0000000000000000e+00  0.0000000000000000e+00 0.0000000000000000e+00 0.0000000000000000e+00  0.0000000000000000e+00 0.0000000000000000e+00 0.0000000000000000e+00  0.0000000000000000e+00 0.0000000000000000e+00 0.0000000000000000e+00  0.0000000000000000e+00 0.0000000000000000e+00 0.0000000000000000e+00  0.0000000000000000e+00 0.0000000000000000e+00 0.0000000000000000e+00  0.0000000000000000e+00 0.0000000000000000e+00 0.0000000000000000e+00  0.0000000000000000e+00 0.0000000000000000e+00 0.0000000000000000e+00  0.0000000000000000e+00 0.0000000000000000e+00 0.0000000000000000e+00  0.0000000000000000e+00 0.0000000000000000e+00 0.0000000000000000e+00  0.0000000000000000e+00 0.0000000000000000e+00 0.0000000000000000e+00  0.0000000000000000e+00 0.0000000000000000e+00 0.0000000000000000e+00  0.0000000000000000e+00 0.0000000000000000e+00 0.0000000000000000e+00  0.0000000000000000e+00 0.0000000000000000e+00 0.0000000000000000e+00  0.0000000000000000e+00 0.0000000000000000e+00 0.0000000000000000e+00  0.0000000000000000e+00 0.0000000000000000e+00 0.0000000000000000e+00  0.0000000000000000e+00 0.0000000000000000e+00 0.0000000000000000e+00  0.0000000000000000e+00 0.0000000000000000e+00 0.0000000000000000e+00  0.0000000000000000e+00 0.0000000000000000e+00 0.0000000000000000e+00  0.0000000000000000e+00 0.0000000000000000e+00 0.0000000000000000e+00  0.0000000000000000e+00 0.0000000000000000e+00 0.0000000000000000e+00  0.0000000000000000e+00 0.0000000000000000e+00 0.0000000000000000e+00  0.0000000000000000e+00 0.0000000000000000e+00 0.0000000000000000e+00  0.0000000000000000e+00 0.0000000000000000e+00 0.0000000000000000e+00  0.0000000000000000e+00 0.0000000000000000e+00 0.0000000000000000e+00  0.0000000000000000e+00 0.0000000000000000e+00 0.0000000000000000e+00  0.0000000000000000e+00 0.0000000000000000e+00 0.0000000000000000e+00  0.0000000000000000e+00 0.0000000000000000e+00 0.0000000000000000e+00  0.0000000000000000e+00 0.0000000000000000e+00 0.0000000000000000e+00  0.0000000000000000e+00 0.0000000000000000e+00 0.0000000000000000e+00  0.0000000000000000e+00 0.0000000000000000e+00 0.0000000000000000e+00  0.0000000000000000e+00 0.0000000000000000e+00 0.0000000000000000e+00  0.0000000000000000e+00 0.0000000000000000e+00 0.0000000000000000e+00  0.0000000000000000e+00 0.0000000000000000e+00 0.0000000000000000e+00  0.0000000000000000e+00 0.0000000000000000e+00 0.0000000000000000e+00  0.0000000000000000e+00 0.0000000000000000e+00 0.0000000000000000e+00  0.0000000000000000e+00 0.0000000000000000e+00 0.0000000000000000e+00  0.0000000000000000e+00 0.0000000000000000e+00 0.0000000000000000e+00  0.0000000000000000e+00 0.0000000000000000e+00 0.0000000000000000e+00  0.0000000000000000e+00 0.0000000000000000e+00 0.0000000000000000e+00  0.0000000000000000e+00 0.0000000000000000e+00 0.0000000000000000e+00  0.0000000000000000e+00 0.0000000000000000e+00 0.0000000000000000e+00  0.0000000000000000e+00 0.0000000000000000e+00 0.0000000000000000e+00  0.0000000000000000e+00 0.0000000000000000e+00 0.0000000000000000e+00  0.0000000000000000e+00 0.0000000000000000e+00 0.0000000000000000e+00  0.0000000000000000e+00 0.0000000000000000e+00 0.0000000000000000e+00  0.0000000000000000e+00 0.0000000000000000e+00 0.0000000000000000e+00  0.0000000000000000e+00 0.0000000000000000e+00 0.0000000000000000e+00  0.0000000000000000e+00 0.0000000000000000e+00 0.0000000000000000e+00  0.0000000000000000e+00 0.0000000000000000e+00 0.0000000000000000e+00  0.0000000000000000e+00 0.0000000000000000e+00 0.0000000000000000e+00  0.0000000000000000e+00 0.0000000000000000e+00 0.0000000000000000e+00  0.0000000000000000e+00 0.0000000000000000e+00 0.0000000000000000e+00  0.0000000000000000e+00 0.0000000000000000e+00 0.0000000000000000e+00  0.0000000000000000e+00 0.0000000000000000e+00 0.0000000000000000e+00  0.0000000000000000e+00 0.0000000000000000e+00 0.0000000000000000e+00  0.0000000000000000e+00 0.0000000000000000e+00 0.0000000000000000e+00  0.0000000000000000e+00 0.0000000000000000e+00 0.0000000000000000e+00  0.0000000000000000e+00 0.0000000000000000e+00 0.0000000000000000e+00  0.0000000000000000e+00 0.0000000000000000e+00 0.0000000000000000e+00  0.0000000000000000e+00 0.0000000000000000e+00 0.0000000000000000e+00  0.0000000000000000e+00 0.0000000000000000e+00 0.0000000000000000e+00  0.0000000000000000e+00 0.0000000000000000e+00 0.0000000000000000e+00  0.0000000000000000e+00 0.0000000000000000e+00 0.0000000000000000e+00  0.0000000000000000e+00 0.0000000000000000e+00 0.0000000000000000e+00  0.0000000000000000e+00 0.0000000000000000e+00 0.0000000000000000e+00  0.0000000000000000e+00 0.0000000000000000e+00 0.0000000000000000e+00  0.0000000000000000e+00 0.0000000000000000e+00 0.0000000000000000e+00  0.0000000000000000e+00 0.0000000000000000e+00 0.0000000000000000e+00  0.0000000000000000e+00 0.0000000000000000e+00 0.0000000000000000e+00  0.0000000000000000e+00 0.0000000000000000e+00 0.0000000000000000e+00  0.0000000000000000e+00 0.0000000000000000e+00 0.0000000000000000e+00  0.0000000000000000e+00 0.0000000000000000e+00 0.0000000000000000e+00  0.0000000000000000e+00 0.0000000000000000e+00 0.0000000000000000e+00  0.0000000000000000e+00 0.0000000000000000e+00 0.0000000000000000e+00  0.0000000000000000e+00 0.0000000000000000e+00 0.0000000000000000e+00  0.0000000000000000e+00 0.0000000000000000e+00 0.0000000000000000e+00  0.0000000000000000e+00 0.0000000000000000e+00 0.0000000000000000e+00  0.0000000000000000e+00 0.0000000000000000e+00 0.0000000000000000e+00  0.0000000000000000e+00 0.0000000000000000e+00 0.0000000000000000e+00  0.0000000000000000e+00 0.0000000000000000e+00 0.0000000000000000e+00  0.0000000000000000e+00 0.0000000000000000e+00 0.0000000000000000e+00  0.0000000000000000e+00 0.0000000000000000e+00 0.0000000000000000e+00  0.0000000000000000e+00 0.0000000000000000e+00 0.0000000000000000e+00  0.0000000000000000e+00 0.0000000000000000e+00 0.0000000000000000e+00  0.0000000000000000e+00 0.0000000000000000e+00 0.0000000000000000e+00  0.0000000000000000e+00 0.0000000000000000e+00 0.0000000000000000e+00  0.0000000000000000e+00 0.0000000000000000e+00 0.0000000000000000e+00  0.0000000000000000e+00 0.0000000000000000e+00 0.0000000000000000e+00  0.0000000000000000e+00 0.0000000000000000e+00 0.0000000000000000e+00  0.0000000000000000e+00 0.0000000000000000e+00 0.0000000000000000e+00  0.0000000000000000e+00 0.0000000000000000e+00 0.0000000000000000e+00  0.0000000000000000e+00 0.0000000000000000e+00 0.0000000000000000e+00  0.0000000000000000e+00 0.0000000000000000e+00 0.0000000000000000e+00  0.0000000000000000e+00 0.0000000000000000e+00 0.0000000000000000e+00  0.0000000000000000e+00 0.0000000000000000e+00 0.0000000000000000e+00  0.0000000000000000e+00 0.0000000000000000e+00 0.0000000000000000e+00  0.0000000000000000e+00 0.0000000000000000e+00 0.0000000000000000e+00  0.0000000000000000e+00 0.0000000000000000e+00 0.0000000000000000e+00  0.0000000000000000e+00 0.0000000000000000e+00 0.0000000000000000e+00  0.0000000000000000e+00 0.0000000000000000e+00 0.0000000000000000e+00  0.0000000000000000e+00 0.0000000000000000e+00 0.0000000000000000e+00  0.0000000000000000e+00 0.0000000000000000e+00 0.0000000000000000e+00  0.0000000000000000e+00 0.0000000000000000e+00 0.0000000000000000e+00  0.0000000000000000e+00 0.0000000000000000e+00 0.0000000000000000e+00  0.0000000000000000e+00 0.0000000000000000e+00 0.0000000000000000e+00  0.0000000000000000e+00 0.0000000000000000e+00 0.0000000000000000e+00  0.0000000000000000e+00 0.0000000000000000e+00 0.0000000000000000e+00  0.0000000000000000e+00 0.0000000000000000e+00 0.0000000000000000e+00  0.0000000000000000e+00 0.0000000000000000e+00 0.0000000000000000e+00  0.0000000000000000e+00 0.0000000000000000e+00 0.0000000000000000e+00  0.0000000000000000e+00 0.0000000000000000e+00 0.0000000000000000e+00  0.0000000000000000e+00 0.0000000000000000e+00 0.0000000000000000e+00  0.0000000000000000e+00 0.0000000000000000e+00 0.0000000000000000e+00  0.0000000000000000e+00 0.0000000000000000e+00 0.0000000000000000e+00  0.0000000000000000e+00 0.0000000000000000e+00 0.0000000000000000e+00  0.0000000000000000e+00 0.0000000000000000e+00 0.0000000000000000e+00  0.0000000000000000e+00 0.0000000000000000e+00 0.0000000000000000e+00  0.0000000000000000e+00 0.0000000000000000e+00 0.0000000000000000e+00  0.0000000000000000e+00 0.0000000000000000e+00 0.0000000000000000e+00  0.0000000000000000e+00 0.0000000000000000e+00 0.0000000000000000e+00  0.0000000000000000e+00 0.0000000000000000e+00 0.0000000000000000e+00  0.0000000000000000e+00 0.0000000000000000e+00 0.0000000000000000e+00  0.0000000000000000e+00 0.0000000000000000e+00 0.0000000000000000e+00  0.0000000000000000e+00 0.0000000000000000e+00 0.0000000000000000e+00  0.0000000000000000e+00 0.0000000000000000e+00 0.0000000000000000e+00  0.0000000000000000e+00 0.0000000000000000e+00 0.0000000000000000e+00  0.0000000000000000e+00 0.0000000000000000e+00 0.0000000000000000e+00  0.0000000000000000e+00 0.0000000000000000e+00 0.0000000000000000e+00  0.0000000000000000e+00 0.0000000000000000e+00 0.0000000000000000e+00  0.0000000000000000e+00 0.0000000000000000e+00 0.0000000000000000e+00  0.0000000000000000e+00 0.0000000000000000e+00 0.0000000000000000e+00  0.0000000000000000e+00 0.0000000000000000e+00 0.0000000000000000e+00  0.0000000000000000e+00 0.0000000000000000e+00 0.0000000000000000e+00  0.0000000000000000e+00 0.0000000000000000e+00 0.0000000000000000e+00  0.0000000000000000e+00 0.0000000000000000e+00 0.0000000000000000e+00  0.0000000000000000e+00 0.0000000000000000e+00 0.0000000000000000e+00  0.0000000000000000e+00 0.0000000000000000e+00 0.0000000000000000e+00  0.0000000000000000e+00 0.0000000000000000e+00 0.0000000000000000e+00  0.0000000000000000e+00 0.0000000000000000e+00 0.0000000000000000e+00  0.0000000000000000e+00 0.0000000000000000e+00 0.0000000000000000e+00  0.0000000000000000e+00 0.0000000000000000e+00 0.0000000000000000e+00  0.0000000000000000e+00 0.0000000000000000e+00 0.0000000000000000e+00  0.0000000000000000e+00 0.0000000000000000e+00 0.0000000000000000e+00  0.0000000000000000e+00 0.0000000000000000e+00 0.0000000000000000e+00  0.0000000000000000e+00 0.0000000000000000e+00 0.0000000000000000e+00  0.0000000000000000e+00 0.0000000000000000e+00 0.0000000000000000e+00  0.0000000000000000e+00 0.0000000000000000e+00 0.0000000000000000e+00  0.0000000000000000e+00 0.0000000000000000e+00 0.0000000000000000e+00  0.0000000000000000e+00 0.0000000000000000e+00 0.0000000000000000e+00  0.0000000000000000e+00 0.0000000000000000e+00 0.0000000000000000e+00  0.0000000000000000e+00 0.0000000000000000e+00 0.0000000000000000e+00  0.0000000000000000e+00 0.0000000000000000e+00 0.0000000000000000e+00  0.0000000000000000e+00 0.0000000000000000e+00 0.0000000000000000e+00  0.0000000000000000e+00 0.0000000000000000e+00 0.0000000000000000e+00  0.0000000000000000e+00 0.0000000000000000e+00 0.0000000000000000e+00  0.0000000000000000e+00 0.0000000000000000e+00 0.0000000000000000e+00  0.0000000000000000e+00 0.0000000000000000e+00 0.0000000000000000e+00  0.0000000000000000e+00 0.0000000000000000e+00 0.0000000000000000e+00  0.0000000000000000e+00 0.0000000000000000e+00 0.0000000000000000e+00  0.0000000000000000e+00 0.0000000000000000e+00 0.0000000000000000e+00  0.0000000000000000e+00 0.0000000000000000e+00 0.0000000000000000e+00  0.0000000000000000e+00 0.0000000000000000e+00 0.0000000000000000e+00  0.0000000000000000e+00 0.0000000000000000e+00 0.0000000000000000e+00  0.0000000000000000e+00 0.0000000000000000e+00 0.0000000000000000e+00  0.0000000000000000e+00 0.0000000000000000e+00 0.0000000000000000e+00  0.0000000000000000e+00 0.0000000000000000e+00 0.0000000000000000e+00  0.0000000000000000e+00 0.0000000000000000e+00 0.0000000000000000e+00  0.0000000000000000e+00 0.0000000000000000e+00 0.0000000000000000e+00  0.0000000000000000e+00 0.0000000000000000e+00 0.0000000000000000e+00  0.0000000000000000e+00 0.0000000000000000e+00 0.0000000000000000e+00  0.0000000000000000e+00 0.0000000000000000e+00 0.0000000000000000e+00  0.0000000000000000e+00 0.0000000000000000e+00 0.0000000000000000e+00  0.0000000000000000e+00 0.0000000000000000e+00 0.0000000000000000e+00  0.0000000000000000e+00 0.0000000000000000e+00 0.0000000000000000e+00  0.0000000000000000e+00 0.0000000000000000e+00 0.0000000000000000e+00  0.0000000000000000e+00 0.0000000000000000e+00 0.0000000000000000e+00  0.0000000000000000e+00 0.0000000000000000e+00 0.0000000000000000e+00  0.0000000000000000e+00 0.0000000000000000e+00 0.0000000000000000e+00  0.0000000000000000e+00 0.0000000000000000e+00 0.0000000000000000e+00  0.0000000000