<?xml version="1.0"?>
<VTKFile type="UnstructuredGrid"  version="0.1"  >
<UnstructuredGrid>
<Piece  NumberOfPoints="14522" NumberOfCells="28530">
<Points>
<DataArray  type="Float64"  NumberOfComponents="3"  format="ascii">0 1 0  0 0 0  1 0 0  1 1 0  0.5 0 0  1 0.5 0  0.5 1 0  0 0.5 0  0.5 0.5 0  0 0.25 0  0.25 0 0  0.25 1 0  0 0.75 0  1 0.25 0  0.75 0 0  1 0.75 0  0.75 1 0  0.7083333333333333 0.2916666666666667 0  0.2916666666666666 0.7083333333333334 0  0.375 0.25 0  0.75 0.625 0  0.2569444444444444 0.4652777777777778 0  0.5366379310344828 0.7535919540229885 0  0.1875 0.1875 0  0.8125 0.8125 0  0.869047619047619 0.375 0  0.1450441919191919 0.6052714646464646 0  0.375 0.8690476190476191 0  0.5526960784313725 0.1825980392156862 0  0.8385416666666666 0.1614583333333334 0  0.1614583333333333 0.8385416666666667 0  0.6736111111111112 0.4652777777777778 0  0.1367521367521368 0.3477564102564102 0  0.6570970491253563 0.8648656830417855 0  0.5102479397556124 0.3386260301221938 0  0.3654513888888889 0.5737847222222222 0  0.6929750044954185 0.1362784921584263 0  0.388576102743835 0.411911725237599 0  0.6091269841269842 0.5942460317460317 0  0.875 0.6875 0  0.427278890279516 0.119889445139758 0  0.8544456845238095 0.5213913690476191 0  0.125 0 0  0 0.125 0  1 0.875 0  0.875 1 0  0.1280008648150532 0.4769292340226777 0  0.2695382451711197 0.3321750950221553 0  0.7031567235715964 0.7447810921428012 0  0.625 0 0  0.375 0 0  0.125 1 0  0.875 0 0  0 0.375 0  0 0.625 0  1 0.375 0  0.375 1 0  1 0.125 0  0 0.875 0  0.625 1 0  1 0.625 0  0.2979288363930608 0.1201429454643536 0  0.410919540229885 0.7484605911330049 0  0.5325041980395562 0.878905151526474 0  0.4831670727569156 0.6331060043826487 0  0.1735997378973042 0.7204747378973043 0  0.2534919507575758 0.5772372159090909 0  0.2633928571428572 0.8876488095238095 0  0.8199404761904761 0.2730654761904762 0  0.75830270586982 0.3919383189517417 0  0.5750282248382511 0.4237522353023667 0  0.6008360210023379 0.2794828358598495 0  0.08163442644334186 0.6821295860397322 0  0.08333333333333333 0.1875 0  0.2028380815996574 0.08844602719988583 0  0.2766521142611967 0.2325436572164097 0  0.90625 0.78125 0  0.890625 0.890625 0  0.7545696325008384 0.8973565441669461 0  0.5625 0.08086590340834317 0  0.09077380952380953 0.09077380952380952 0  0.4610923478694773 0.209034015149656 0  0.7542527598351648 0.5248380520595106 0  0.6459235536037465 0.3619913988405765 0  0.7560381768882634 0.20506142233852 0  0.07073252688172042 0.8125 0  0.0924753097241701 0.9078102849914793 0  0.9292674731182795 0.1875 0  0.9075246902758297 0.09218971500852073 0  0.8125 0.07073252688172045 0  0.2400955776842301 0.7869705776842302 0  0.9121050213379069 0.2781978201831695 0  0.7916878157143976 0.7239689078571988 0  0.9345238095238094 0.4375 0  0.4375 0.9345238095238095 0  0.3725616989755203 0.6651895248862173 0  0.06536271996350887 0.5625 0  0.9348362560379583 0.5625 0  0.456646798987055 0.8277247094351965 0  0.1875 0.9355758238725954 0  0.6169761231634859 0.6939779188977889 0  0.6226854751147515 0.7827911461419014 0  0.3305695598137626 0.7901697871282585 0  0.5865305325818898 0.5101085479043448 0  0.6622701297028378 0.2177663989757395 0  0.1354166666666667 0.2591702279202279 0  0 0.3125 0  0.2094429575680048 0.3936361846162499 0  0.836666296419157 0.607917407161686 0  0.6875 1 0  0.214261555450504 0.6492551722020035 0  0 0.4375 0  0.07731537126068377 0.40625 0  0.3427725432967068 0.4879566233699599 0  0.3550792513951871 0.3331953632609953 0  0.4462473953896857 0.2887834789342508 0  0.4747801464819794 0.417386052030127 0  0.8229836475148948 0.4443292349237342 0  0.7322605135514757 0.8199240278289671 0  0.6756431877205955 0.5468989748126787 0  0.1968419507215863 0.5194573482612496 0  0.3285590277777778 0.9345238095238095 0  0.8125 1 0  0.4198917601920009 0.5134893045331258 0  0.5232405503206691 0.2595791787880157 0  1 0.9375 0  0.1987510870015086 0.3025185951894431 0  0.5625 1 0  0.6005390654136388 0.9228110509230952 0  0.6411254848194414 0.07704872765442942 0  0.3357233162523242 0.1855113224530532 0  0.6730653396610877 0.6393887462324165 0  0.310966987234063 0.6240019765311626 0  0.7368737836204349 0.07457755202327881 0  0.6192316414418171 0.1485238406378594 0  0.5432429670607106 0.678552703844006 0  0.4754371679695679 0.7103946803120881 0  0.07501324890749672 0.3043839897335739 0  0.5358146975860403 0.5688321463205916 0  0.3115271739500156 0.3982137365971444 0  0.3625191397122174 0.0767854603650549 0  0.5024029442563831 0.1264128223758444 0  0.4375 0 0  0.4699946908887376 0.06379961173775725 0  0.9375 0.71875 0  0.9272105898044465 0.635671179608893 0  0.9375 1 0  0.6690971819568612 0.9331530898202766 0  0.1073454944778885 0.7499206387638554 0  0.8699082999280406 0.2232403652524313 0  0.5773118091863964 0.3548027349159383 0  0.1354166666666667 0.1428571428571428 0  0.3125 0 0  0.8241684193077341 0.9257452995055244 0  0.4352314948354036 0.3586940847489378 0  0.4351301473778832 0.5819726043539077 0  0.8073232928518163 0.3419398170341962 0  0.7775949246947366 0.1298519409204575 0  0.6875 0 0  0.7413513991851041 0.457933324954483 0  0.939453125 0.841796875 0  0.5630355154606987 0.8171875156478349 0  0.9345238095238095 0.3461466592368577 0  0.9375 0 0  1 0.0625 0  0.0625 1 0  0 0.9375 0  0.06552178593177167 0.4969053669623468 0  0.1424866619031703 0.4130277709291224 0  0.1275287182444726 0.5422946908002588 0  0.2637686595586339 0.06413888464529549 0  0.2524263535491086 0.1697437503243817 0  0.7367218397988525 0.6888573970660841 0  0.0625 0 0  0 0.0625 0  0.8463594539285995 0.7578283617857982 0  0.3128751192101563 0.2851997374369947 0  0.4015281788351144 0.1806421385113692 0  0.1910251795116588 0.4553332197174453 0  0.287797471442006 0.5222621440543902 0  0.3962628745986055 0.8097380085535307 0  0.3505895299554843 0.7304878890838692 0  0.5019151500495276 0.9356042615328103 0  0.9374389419410134 0.4999931039076005 0  0.3125 1 0  0.1875 1 0  1 0.5625 0  0.4375 1 0  1 0.3125 0  1 0.4375 0  0.8125 0 0  1 0.1875 0  0.5625 0 0  0.1875 0 0  0 0.1875 0  0 0.5625 0  0 0.6875 0  0 0.8125 0  1 0.6875 0  1 0.8125 0  0.8021696218581627 0.6612893947866073 0  0.06154922295426143 0.6239401126946708 0  0.9359375 0.9359375 0  0.4666158024849896 0.7691515918155014 0  0.2318201265217025 0.7064974250277525 0  0.1565954253579966 0.6635489312486841 0  0.1598132503680848 0.7787147500325552 0  0.3146529991605639 0.8510876378205265 0  0.1461873209418733 0.05982804528877814 0  0.06109554988524315 0.2446551776247686 0  0.8054950308560754 0.5564226538848541 0  0.470541749491976 0.8853316336952531 0  0.6948472567465137 0.4042308563372457 0  0.8802828472348889 0.4658893256343853 0  0.6788075634946739 0.7974194205806069 0  0.2155048659603867 0.2428201584940968 0  0.8131223143423806 0.2132171049028394 0  0.4330798005432235 0.6671274900735726 0  0.6015279126162613 0.2187368078743274 0  0.8061636571464289 0.8703766630361714 0  0.7008230445061776 0.3478568388444072 0  0.8638466246958771 0.3147095987735538 0  0.204801534004265 0.8789209409594009 0  0.2449006736431132 0.9424182882803838 0  0.7611268409371427 0.2643056884799992 0  0.7552800864046191 0.7678006649959446 0  0.5983639638906616 0.864113435029236 0  0.1956559506814437 0.577281203577426 0  0.3527670268164207 0.1320469097565204 0  0.7530364577483248 0.3262386077083089 0  0.4535919187979363 0.4690107087451527 0  0.8824869791666666 0.8336588541666666 0  0.8814453125 0.9451171875 0  0.5582987942628019 0.622421666543858 0  0.6817532446064828 0.6939001801354731 0  0.3830295138888889 0.9450968952922078 0  0.4140603937012541 0.05211333372716105 0  0.5535864501303013 0.3060591985391672 0  0.6560130086346878 0.2729726562211558 0  0.890203140221684 0.5948314305427268 0  0.7043857725999024 0.593980890020804 0  0.5105843922695152 0.8016828014338627 0  0.05365910753708378 0.7315110031682004 0  0.616904573672261 0.4621186633436136 0  0.5338511646455415 0.387875898899613 0  0.5231769258947843 0.4477682463140762 0  0.650302973237622 0.7370722302085519 0  0.3927483139621257 0.4662414504529014 0  0.8034595960585199 0.4972538342758211 0  0.7738337841682438 0.9496376207663251 0  0.7193737507158268 0.954685447650112 0  0.482525916480686 0.5528257169991676 0  0.2533501157346781 0.2809495420003238 0  0.3118487924482243 0.5702930126570319 0  0.6257598847669529 0.4104163315430518 0  0.1354166666666667 0.1955605158730158 0  0.04166666666666666 0.15625 0  0.3956448985530264 0.6174149462065157 0  0.8102897701818546 0.3938784238208349 0  0.2641154190013625 0.8344469561943118 0  0.642852220770013 0.5068794586563659 0  0.05271458179508221 0.355846947336007 0  0.7021551360070266 0.8921457280225779 0  0.5692125776683765 0.1328512638850284 0  0.5206162811937602 0.04865158770992991 0  0.6001838442201555 0.04540556991297563 0  0.2597716608242787 0.4118346398477178 0  0.4040584599473195 0.3179589136784675 0  0.1480337679295207 0.8941560631483065 0  0.1344356707112281 0.9466251177415842 0  0.7114696411829317 0.4983917389078826 0  0.7585704698442475 0.5751926345944629 0  0.2189131956390871 0.04022068508159698 0  0.2476935455192043 0.1123642267635843 0  0.185995005654517 0.1365524537205238 0  0.6223414373308711 0.643380839165121 0  0.5732602596637543 0.7190051747306219 0  0.268358222364537 0.6586246524467934 0  0.3265879848129173 0.2369791782191225 0  0.1267095595787346 0.7034787238999181 0  0.1115202922226038 0.6421997933884982 0  0.3128688392940203 0.07260997451790079 0  0.550724900485678 0.9253360991633187 0  0.7142608810459105 0.2384904702214873 0  0.7045869185243887 0.1871826897887429 0  0.890625 0.734375 0  0.953125 0.765625 0  0.2111812642821677 0.8286209446459138 0  0.9590293078204457 0.09375 0  0.953431269039847 0.1435719386408004 0  0.04097069217955424 0.90625 0  0.04656873096015299 0.8564280613591996 0  0.1078743037981226 0.8541621766048062 0  0.8921256962018773 0.1458378233951939 0  0.8521576979194619 0.1084496634207678 0  0.8655663982740958 0.05464346096571447 0  0.04005659640905543 0.09375 0  0.1001448316533417 0.0424677624422826
[...]
<PointData  Vectors="f_29-0"> 
<DataArray  type="Float64"  Name="f_29-0"  NumberOfComponents="3" format="ascii">0.0000000000000000e+00 0.0000000000000000e+00 0.0000000000000000e+00  0.0000000000000000e+00 0.0000000000000000e+00 0.0000000000000000e+00  0.0000000000000000e+00 -1.0574143424761097e-22 0.0000000000000000e+00  0.0000000000000000e+00 0.0000000000000000e+00 0.0000000000000000e+00  0.0000000000000000e+00 -1.4172407736319985e-17 0.0000000000000000e+00  -2.8047156393876102e-17 0.0000000000000000e+00 0.0000000000000000e+00  1.0000000000000000e+00 8.2005558143512087e-17 0.0000000000000000e+00  2.0721794189372917e-17 0.0000000000000000e+00 0.0000000000000000e+00  -2.0519252495790558e-01 -9.8925641651543805e-07 0.0000000000000000e+00  2.9897626938161232e-18 0.0000000000000000e+00 0.0000000000000000e+00  0.0000000000000000e+00 1.0156649990995221e-18 0.0000000000000000e+00  1.0000000000000000e+00 1.5482051869382869e-16 0.0000000000000000e+00  -1.9539659852310484e-18 0.0000000000000000e+00 0.0000000000000000e+00  -4.4722240619939161e-17 0.0000000000000000e+00 0.0000000000000000e+00  0.0000000000000000e+00 -2.6389480784734346e-18 0.0000000000000000e+00  -6.6981260512960981e-19 0.0000000000000000e+00 0.0000000000000000e+00  1.0000000000000000e+00 -1.5011462440292508e-16 0.0000000000000000e+00  -9.4391112296644694e-02 -6.5101738080427407e-02 0.0000000000000000e+00  -1.2850216154443558e-01 2.2924278036265075e-01 0.0000000000000000e+00  -1.0704999726677633e-01 3.5141899228772117e-02 0.0000000000000000e+00  -1.4650148623424430e-01 -2.4793907785986941e-01 0.0000000000000000e+00  -1.2535294301011796e-01 1.5674953647227702e-01 0.0000000000000000e+00  -2.7144096009924273e-02 -3.5737919811680945e-02 0.0000000000000000e+00  -3.2824465787675547e-02 2.9494734433501230e-02 0.0000000000000000e+00  -6.5878040710268204e-02 -3.0857651936765251e-01 0.0000000000000000e+00  -3.6468450257124169e-02 -9.0143828878940027e-02 0.0000000000000000e+00  -7.7816437736677888e-02 2.4358387102209322e-01 0.0000000000000000e+00  2.8820080822774202e-01 6.0596016944483341e-02 0.0000000000000000e+00  -9.2516443861996756e-02 -9.2817210232882391e-03 0.0000000000000000e+00  -2.1903866976083097e-02 -2.0472303744707123e-02 0.0000000000000000e+00  -5.4762396888031833e-02 3.2066162828045547e-01 0.0000000000000000e+00  -1.6062253604923551e-01 -1.2842733378316545e-01 0.0000000000000000e+00  -3.6111810178123420e-02 7.9798128016294406e-02 0.0000000000000000e+00  2.4582856474222350e-01 -8.3948918977774831e-02 0.0000000000000000e+00  -1.5742645019301404e-01 -5.1858850253836512e-03 0.0000000000000000e+00  -1.8870336839688434e-01 1.3794014601490145e-01 0.0000000000000000e+00  -5.1405713182956524e-02 -1.6501820267809136e-02 0.0000000000000000e+00  -1.6772356141052810e-01 7.3324036388346683e-02 0.0000000000000000e+00  -1.9096225915790765e-01 -1.1715662659318531e-01 0.0000000000000000e+00  -7.6042819779593374e-02 -2.9368552258315245e-01 0.0000000000000000e+00  -6.3911082899512070e-02 6.0422438098920702e-03 0.0000000000000000e+00  -6.4531339761216777e-02 -1.8290445315336090e-01 0.0000000000000000e+00  0.0000000000000000e+00 1.1787521844181153e-18 0.0000000000000000e+00  -4.3759740832043221e-18 0.0000000000000000e+00 0.0000000000000000e+00  -5.1046834847871399e-17 0.0000000000000000e+00 0.0000000000000000e+00  1.0000000000000000e+00 -4.8120580832939667e-16 0.0000000000000000e+00  -4.6833871351157665e-02 1.4369744803215284e-01 0.0000000000000000e+00  -9.6600850951909498e-02 8.5308101128875921e-02 0.0000000000000000e+00  -9.1519471972555458e-02 -2.1568946508613618e-01 0.0000000000000000e+00  0.0000000000000000e+00 -7.3361148378874167e-19 0.0000000000000000e+00  0.0000000000000000e+00 4.8220870615390047e-18 0.0000000000000000e+00  1.0000000000000000e+00 5.6842724315043017e-18 0.0000000000000000e+00  0.0000000000000000e+00 7.0736581715501791e-18 0.0000000000000000e+00  0.0000000000000000e+00 0.0000000000000000e+00 0.0000000000000000e+00  5.9819146740951534e-18 0.0000000000000000e+00 0.0000000000000000e+00  -1.4110583274004745e-18 0.0000000000000000e+00 0.0000000000000000e+00  1.0000000000000000e+00 0.0000000000000000e+00 0.0000000000000000e+00  1.0277060354387808e-17 0.0000000000000000e+00 0.0000000000000000e+00  0.0000000000000000e+00 0.0000000000000000e+00 0.0000000000000000e+00  1.0000000000000000e+00 1.0655204756008050e-16 0.0000000000000000e+00  -5.8580432511424316e-18 0.0000000000000000e+00 0.0000000000000000e+00  -4.4210154372740132e-02 1.3459794292180837e-02 0.0000000000000000e+00  -4.7232301981127489e-02 8.9463014718467529e-02 0.0000000000000000e+00  3.6905906942800187e-01 -1.2813243159724812e-02 0.0000000000000000e+00  -1.8072694533304645e-01 1.9007621296410624e-02 0.0000000000000000e+00  -1.0999483467494944e-01 3.2524535150507417e-01 0.0000000000000000e+00  -1.4532357503007107e-01 2.2219838046693277e-01 0.0000000000000000e+00  2.4964760082566165e-01 1.1732708998125625e-01 0.0000000000000000e+00  -4.4369889192270667e-02 -5.8100654422439939e-02 0.0000000000000000e+00  -9.8420432673951216e-02 -1.1805385973245669e-01 0.0000000000000000e+00  -1.8014581600214674e-01 -5.3101958760476714e-02 0.0000000000000000e+00  -1.2344565476511316e-01 -3.5273489607579089e-02 0.0000000000000000e+00  -4.0144500288753771e-02 2.3374551069508978e-01 0.0000000000000000e+00  -7.6702933111180028e-03 1.5350068831348609e-02 0.0000000000000000e+00  -1.7826641606373268e-02 7.6752537852222118e-03 0.0000000000000000e+00  -7.1951197300878011e-02 4.5029313100261495e-02 0.0000000000000000e+00  -6.9174351298150541e-02 -3.3736555237016275e-01 0.0000000000000000e+00  -4.0240785693440924e-02 -3.3575700656598789e-01 0.0000000000000000e+00  2.6737260477488117e-01 -1.1765532952223796e-01 0.0000000000000000e+00  -4.6383445091303037e-02 -2.5681740024415317e-03 0.0000000000000000e+00  -3.6413769364240572e-03 3.6303842512329710e-03 0.0000000000000000e+00  -1.0448827570168351e-01 8.7015580050827657e-03 0.0000000000000000e+00  -1.3218006380992844e-01 -1.9490313678625440e-01 0.0000000000000000e+00  -1.4030016144613547e-01 -7.4576575114470689e-02 0.0000000000000000e+00  -5.3915721523824338e-02 -3.7008372350348089e-02 0.0000000000000000e+00  -5.6806575462017075e-02 3.2805079785474428e-01 0.0000000000000000e+00  -3.7064503338945648e-02 3.3770706794536054e-01 0.0000000000000000e+00  -5.6258675222691330e-03 -1.2993289267260184e-02 0.0000000000000000e+00  -3.8692818718741927e-03 -3.8456252723938307e-03 0.0000000000000000e+00  -1.2193486650016971e-02 -4.8344070526370941e-03 0.0000000000000000e+00  -6.3268252039552192e-02 2.6137471858029648e-01 0.0000000000000000e+00  -1.2931877556849828e-02 -3.6660652811595480e-02 0.0000000000000000e+00  -1.1929832994397667e-01 -3.0770596771704534e-01 0.0000000000000000e+00  -1.2695656717634578e-02 -7.3566625874962946e-02 0.0000000000000000e+00  6.2824682950863586e-01 8.5964899448564593e-03 0.0000000000000000e+00  -1.5749960051949483e-01 1.4318448881313406e-01 0.0000000000000000e+00  -1.8505326186263559e-02 1.2762372471210928e-01 0.0000000000000000e+00  -1.8402317633736398e-02 -1.2731139998418919e-01 0.0000000000000000e+00  1.7139714248210286e-01 2.8824488530558336e-02 0.0000000000000000e+00  3.8008046918959010e-01 9.2919189495074730e-02 0.0000000000000000e+00  -1.3169124210161876e-01 -1.3006721940492585e-01 0.0000000000000000e+00  1.3332420066255206e-02 -1.1116040875880531e-01 0.0000000000000000e+00  4.3231015729098560e-03 1.5470922567173390e-01 0.0000000000000000e+00  -1.9767469260613010e-01 -7.9562059915694219e-02 0.0000000000000000e+00  -8.6135163302995935e-02 -3.3839705707532954e-02 0.0000000000000000e+00  -2.6087434366722281e-02 4.4725855151407493e-02 0.0000000000000000e+00  5.3924079820795863e-19 0.0000000000000000e+00 0.0000000000000000e+00  -8.1085118675154957e-02 1.1938748905735817e-01 0.0000000000000000e+00  -9.1923611984974438e-02 -2.5348492118074489e-01 0.0000000000000000e+00  1.0000000000000000e+00 -1.0213940846373402e-16 0.0000000000000000e+00  -1.2962448461813778e-01 2.7756354735036998e-01 0.0000000000000000e+00  -3.3563242090214117e-18 0.0000000000000000e+00 0.0000000000000000e+00  -1.5693762453041951e-02 7.2176844315473832e-02 0.0000000000000000e+00  -1.7280228501468217e-01 1.2790116954922118e-01 0.0000000000000000e+00  -1.3085401017496789e-01 6.4515005352615201e-02 0.0000000000000000e+00  -1.3489407297618844e-01 2.0614483766335227e-02 0.0000000000000000e+00  -1.8464603948409891e-01 1.7786877503399180e-02 0.0000000000000000e+00  -7.2046123991265171e-02 -1.4446761146736645e-01 0.0000000000000000e+00  2.2699906014310701e-02 -2.0016093373280328e-01 0.0000000000000000e+00  -1.7507056713723324e-01 -1.6401833878869043e-01 0.0000000000000000e+00  -9.9576925216025333e-02 1.9694245424285176e-01 0.0000000000000000e+00  5.7444246344396355e-01 2.8636513424460372e-02 0.0000000000000000e+00  1.0000000000000000e+00 -2.1696582921091729e-16 0.0000000000000000e+00  -1.9933234701353816e-01 7.4532133066760015e-02 0.0000000000000000e+00  -1.2588799575354406e-01 -7.5412854614133034e-03 0.0000000000000000e+00  4.2288011558371373e-17 0.0000000000000000e+00 0.0000000000000000e+00  -5.7381168507931436e-02 7.2727156968917600e-02 0.0000000000000000e+00  1.0000000000000000e+00 1.5594670764729356e-17 0.0000000000000000e+00  5.5404907926321545e-01 -1.9511854241409100e-02 0.0000000000000000e+00  -3.7620582790869356e-02 -4.8173784522383290e-03 0.0000000000000000e+00  -7.4614663138504983e-02 2.5833005321774148e-02 0.0000000000000000e+00  -1.6732490965403105e-01 -1.8922529802991458e-01 0.0000000000000000e+00  -1.6797219928110194e-01 2.0100789319019249e-01 0.0000000000000000e+00  -2.3759592545019186e-02 -5.9053021129722933e-03 0.0000000000000000e+00  -7.0091718585816684e-02 -1.3732338553740113e-02 0.0000000000000000e+00  -1.4309843249918691e-01 -4.8525722611748937e-02 0.0000000000000000e+00  -1.0233177011528807e-01 2.6552257793052807e-02 0.0000000000000000e+00  -1.0621442432289033e-02 3.8487185751968821e-02 0.0000000000000000e+00  -2.0408207451750404e-01 -3.7840553543464280e-02 0.0000000000000000e+00  -1.3497808040223536e-01 1.0533139150017690e-01 0.0000000000000000e+00  -3.7921318326267550e-02 4.6933444399458180e-03 0.0000000000000000e+00  -7.0229188710485335e-02 -2.2603421367923545e-04 0.0000000000000000e+00  0.0000000000000000e+00 -1.5584805960880089e-18 0.0000000000000000e+00  -3.8877684028834701e-02 8.0913006807443988e-04 0.0000000000000000e+00  -2.9887972903089935e-02 -2.2187833272704383e-01 0.0000000000000000e+00  -2.8305695960247221e-02 -1.8350187298745343e-01 0.0000000000000000e+00  1.0000000000000000e+00 0.0000000000000000e+00 0.0000000000000000e+00  5.6834337273593150e-01 -2.9138068837388526e-02 0.0000000000000000e+00  -7.3465625461365730e-02 3.2717981805215646e-01 0.0000000000000000e+00  -2.0874721284668357e-02 -3.2503644972323519e-02 0.0000000000000000e+00  -1.5625037202422362e-01 -4.1109458250029603e-02 0.0000000000000000e+00  -1.4013979434066638e-02 1.4120855936175767e-02 0.0000000000000000e+00  0.0000000000000000e+00 4.2363029672854919e-18 0.0000000000000000e+00  2.8292518984325404e-01 -1.2914165606329930e-01 0.0000000000000000e+00  -1.5986951048160750e-01 3.5345212785145325e-02 0.0000000000000000e+00  -1.9933709711499228e-01 6.9498158667501087e-02 0.0000000000000000e+00  -6.1907660905463874e-02 -9.0495428489675053e-02 0.0000000000000000e+00  -3.0501239236423987e-02 -1.6083739738652791e-02 0.0000000000000000e+00  0.0000000000000000e+00 -1.4421030805616764e-18 0.0000000000000000e+00  -1.2450592656961323e-01 -1.5213741723612048e-01 0.0000000000000000e+00  -5.5762552272466147e-02 -3.3490065843917516e-01 0.0000000000000000e+00  1.3205657241773605e-01 -4.5604324433189625e-02 0.0000000000000000e+00  -9.5084532211849385e-03 -4.4729155449589310e-02 0.0000000000000000e+00  0.0000000000000000e+00 2.9065796326556040e-18 0.0000000000000000e+00  1.7065992018647008e-18 0.0000000000000000e+00 0.0000000000000000e+00  1.0000000000000000e+00 -4.1218162938808025e-17 0.0000000000000000e+00  -1.9862203804575094e-17 0.0000000000000000e+00 0.0000000000000000e+00  -1.5218729880542813e-02 9.7018240080891605e-02 0.0000000000000000e+00  -4.6950526717120099e-02 1.1446591775816625e-01 0.0000000000000000e+00  -5.5202671585717081e-02 1.8582459852144287e-01 0.0000000000000000e+00  -2.0688400125196977e-02 4.4594753084251587e-03 0.0000000000000000e+00  -4.7675828673740303e-02 2.6368115474223158e-02 0.0000000000000000e+00  -1.3915062321164806e-01 -2.5721066948148308e-01 0.0000000000000000e+00  0.0000000000000000e+00 3.0327468053600872e-19 0.0000000000000000e+00  -3.3466547240132044e-18 0.0000000000000000e+00 0.0000000000000000e+00  -1.0049054365477572e-01 -3.4499749194618634e-01 0.0000000000000000e+00  -1.0036342066145626e-01 5.9107064142277961e-02 0.0000000000000000e+00  -8.6092515395404925e-02 1.6379364026543154e-02 0.0000000000000000e+00  -8.2875151104679912e-02 1.5411557265282005e-01 0.0000000000000000e+00  -1.5502108918281232e-01 1.7617387305172721e-01 0.0000000000000000e+00  9.3333635628972761e-02 8.0828582633436119e-02 0.0000000000000000e+00  -9.3396210163823296e-02 1.5961463206313317e-01 0.0000000000000000e+00  6.4130389394362031e-01 -2.4831167913208008e-04 0.0000000000000000e+00  -1.4103374705931872e-02 -9.4648684740874109e-02 0.0000000000000000e+00  9.9999999999999989e-01 6.2820330638805704e-18 0.0000000000000000e+00  1.0000000000000000e+00 1.0815930926576153e-15 0.0000000000000000e+00  1.9173220029849426e-17 0.0000000000000000e+00 0.0000000000000000e+00  1.0000000000000000e+00 3.6534408180567436e-17 0.0000000000000000e+00  2.0891672684989125e-18 0.0000000000000000e+00 0.0000000000000000e+00  3.3918033084673303e-18 0.0000000000000000e+00 0.0000000000000000e+00  0.0000000000000000e+00 5.9919906096111075e-18 0.0000000000000000e+00  2.7345680779779274e-18 0.0000000000000000e+00 0.0000000000000000e+00  0.0000000000000000e+00 -2.9069966105547302e-19 0.0000000000000000e+00  0.0000000000000000e+00 0.0000000000000000e+00 0.0000000000000000e+00  -1.5317790563871678e-18 0.0000000000000000e+00 0.0000000000000000e+00  0.0000000000000000e+00 0.0000000000000000e+00 0.0000000000000000e+00  0.0000000000000000e+00 0.0000000000000000e+00 0.0000000000000000e+00  -1.6919158140447206e-17 0.0000000000000000e+00 0.0000000000000000e+00  0.0000000000000000e+00 0.0000000000000000e+00 0.0000000000000000e+00  2.1432462324149932e-18 0.0000000000000000e+00 0.0000000000000000e+00  -1.2141253872389897e-01 -2.8950714025976243e-01 0.0000000000000000e+00  -2.0256355489803458e-02 1.5470191304651534e-01 0.0000000000000000e+00  -3.5496425230001724e-02 -3.4056427678745549e-01 0.0000000000000000e+00  7.4958011073896283e-03 3.0770033791544769e-02 0.0000000000000000e+00  -1.2839570655862229e-01 2.8683796714663773e-01 0.0000000000000000e+00  -9.5786520233094780e-02 2.9186889800639276e-01 0.0000000000000000e+00  -9.8163959020820882e-02 3.4627847960255925e-01 0.0000000000000000e+00  1.6630108406092156e-01 1.1900273488419597e-01 0.0000000000000000e+00  -5.9975545507846909e-03 2.8466534683329937e-03 0.0000000000000000e+00  -5.7034408998039030e-03 2.0037676099029574e-02 0.0000000000000000e+00  -1.0511455597565186e-01 -2.2213333287830003e-01 0.0000000000000000e+00  3.9746034213055348e-01 1.0615096204653144e-02 0.0000000000000000e+00  -1.3387615381120951e-01 -1.1031754083899778e-01 0.0000000000000000e+00  -4.0626994148340805e-02 -1.3177252621428745e-01 0.0000000000000000e+00  1.4643508545050062e-02 -1.5978098694500098e-01 0.0000000000000000e+00  -5.2478191258186077e-02 4.9583390133014181e-02 0.0000000000000000e+00  -3.6992459932181414e-02 -3.7321668632580601e-02 0.0000000000000000e+00  -1.5495207876977302e-01 7.5511181066715921e-02 0.0000000000000000e+00  -1.0034411003397549e-01 -2.3392802356068679e-02 0.0000000000000000e+00  6.2659541560460941e-02 -2.2745182851282819e-01 0.0000000000000000e+00  -1.1427855987859777e-01 -8.6795306057022403e-02 0.0000000000000000e+00  -3.2201211820528458e-02 -6.5476872889310811e-02 0.0000000000000000e+00  1.1272885961233622e-01 1.9633108604019836e-01 0.0000000000000000e+00  5.3482212212923175e-01 4.5871874505360441e-02 0.0000000000000000e+00  -6.6176941993329186e-02 -5.8286866680176304e-02 0.0000000000000000e+00  -8.4899331949021231e-02 -2.6618425343183449e-01 0.0000000000000000e+00  2.8445216801978118e-01 -4.8732430317312260e-02 0.0000000000000000e+00  -1.0966822309060378e-01 2.3653306511242855e-01 0.0000000000000000e+00  -5.8924812728418173e-02 1.3167286471395909e-02 0.0000000000000000e+00  -8.4672072027663470e-02 -8.4703471472878863e-02 0.0000000000000000e+00  -1.9686189615557764e-01 3.8716532441847605e-02 0.0000000000000000e+00  -8.3617130158440661e-02 -3.6982643240494828e-01 0.0000000000000000e+00  2.4635992604078269e-01 -1.5202446908605094e-01 0.0000000000000000e+00  -1.8578877499811569e-01 -6.5269142591808590e-02 0.0000000000000000e+00  -1.3755309655730458e-01 -2.0175692124870476e-01 0.0000000000000000e+00  6.6751904683411523e-01 1.2495026767981463e-02 0.0000000000000000e+00  -3.0346448463553822e-02 1.5276546357174566e-03 0.0000000000000000e+00  -1.4162184806954495e-01 -2.2646105255597754e-02 0.0000000000000000e+00  -1.0669454287016637e-01 -4.8570638590631779e-02 0.0000000000000000e+00  -4.9774378749832232e-02 -2.0719790861827733e-01 0.0000000000000000e+00  -1.6586089567116061e-01 -2.0395446771306974e-01 0.0000000000000000e+00  9.4437249855165301e-02 -8.3110813269177825e-03 0.0000000000000000e+00  -2.4515712839388522e-02 2.0808559134503549e-01 0.0000000000000000e+00  -1.8058994397085354e-01 -9.1503594399606356e-02 0.0000000000000000e+00  -1.7415688876590871e-01 -2.1238066629917070e-02 0.0000000000000000e+00  -1.9368161940832163e-01 -1.8184254497028284e-02 0.0000000000000000e+00  -8.4308278261316746e-02 -1.5870427825549083e-01 0.0000000000000000e+00  -1.8436112176740949e-01 8.5767347447334691e-02 0.0000000000000000e+00  -9.4901689354957144e-02 -1.8200081071617932e-01 0.0000000000000000e+00  5.5997289839009301e-01 -4.2623282791082746e-02 0.0000000000000000e+00  6.6092245082476919e-01 -2.1849804404161073e-02 0.0000000000000000e+00  -2.0681209806365439e-01 1.7999400629868115e-02 0.0000000000000000e+00  -7.6071301548727155e-02 6.4585289945070817e-02 0.0000000000000000e+00  -1.7180733339619403e-01 1.8251514083673787e-01 0.0000000000000000e+00  -1.6293463431044622e-01 -8.1070471028609120e-02 0.0000000000000000e+00  -1.9557602505912354e-02 2.5921097478305385e-02 0.0000000000000000e+00  -1.6271747975726081e-03 4.7441023610100995e-03 0.0000000000000000e+00  -1.8469359213582764e-01 1.1522565007502777e-01 0.0000000000000000e+00  -7.0112660830056961e-02 -1.1736359024122263e-01 0.0000000000000000e+00  5.6737820452487216e-02 1.8868552673795347e-01 0.0000000000000000e+00  -1.8180290240696387e-01 -1.2475147964996720e-01 0.0000000000000000e+00  -6.5148534356844401e-03 3.9055392387630526e-02 0.0000000000000000e+00  3.1731267202753016e-01 -8.5366207780675468e-02 0.0000000000000000e+00  -6.9938219682446304e-02 -6.9194631420039735e-03 0.0000000000000000e+00  -3.0671450847496933e-02 -3.3508303724335257e-04 0.0000000000000000e+00  -2.6024865953056843e-02 -1.3509193505902985e-03 0.0000000000000000e+00  -1.1325911860106053e-01 1.2636956625278797e-01 0.0000000000000000e+00  -1.3884991523853485e-01 4.1891291975881553e-02 0.0000000000000000e+00  5.0111562033937566e-02 2.5395280699385525e-01 0.0000000000000000e+00  3.1866719851396763e-01 1.2037793218265924e-01 0.0000000000000000e+00  -1.5051238973747200e-01 -1.6359833559485826e-01 0.0000000000000000e+00  -1.3832245891238060e-01 -2.2617762683397089e-01 0.0000000000000000e+00  -9.3191021930401456e-03 1.7987106012794715e-03 0.0000000000000000e+00  -3.1664402104613285e-02 1.2561739122364097e-02 0.0000000000000000e+00  -2.3667418760922331e-02 1.6372077552374673e-02 0.0000000000000000e+00  -1.7125111836149201e-01 -1.3685562404920318e-01 0.0000000000000000e+00  -9.3979377360361702e-02 -7.8432866038110602e-02 0.0000000000000000e+00  -1.4950925566639750e-01 2.4690921504976032e-01 0.0000000000000000e+00  -8.9385359220561650e-02 4.0934024194522932e-02 0.0000000000000000e+00  -8.0076624489783754e-02 3.0728502172201999e