<?xml version="1.0"?>
<VTKFile type="UnstructuredGrid"  version="0.1"  >
<UnstructuredGrid>
<Piece  NumberOfPoints="2121" NumberOfCells="4000">
<Points>
<DataArray  type="Float64"  NumberOfComponents="3"  format="ascii">0 0 0  0.01 0 0  0.02 0 0  0.03 0 0  0.04 0 0  0.05 0 0  0.06 0 0  0.07000000000000001 0 0  0.08 0 0  0.09 0 0  0.1 0 0  0.11 0 0  0.12 0 0  0.13 0 0  0.14 0 0  0.15 0 0  0.16 0 0  0.17 0 0  0.18 0 0  0.19 0 0  0.2 0 0  0.21 0 0  0.22 0 0  0.23 0 0  0.24 0 0  0.25 0 0  0.26 0 0  0.27 0 0  0.28 0 0  0.29 0 0  0.3 0 0  0.31 0 0  0.32 0 0  0.33 0 0  0.34 0 0  0.35 0 0  0.36 0 0  0.37 0 0  0.38 0 0  0.39 0 0  0.4 0 0  0.41 0 0  0.42 0 0  0.43 0 0  0.44 0 0  0.45 0 0  0.46 0 0  0.47 0 0  0.48 0 0  0.49 0 0  0.5 0 0  0.51 0 0  0.52 0 0  0.53 0 0  0.54 0 0  0.55 0 0  0.5600000000000001 0 0  0.57 0 0  0.58 0 0  0.59 0 0  0.6 0 0  0.61 0 0  0.62 0 0  0.63 0 0  0.64 0 0  0.65 0 0  0.66 0 0  0.67 0 0  0.68 0 0  0.6899999999999999 0 0  0.7 0 0  0.71 0 0  0.72 0 0  0.73 0 0  0.74 0 0  0.75 0 0  0.76 0 0  0.77 0 0  0.78 0 0  0.79 0 0  0.8 0 0  0.8100000000000001 0 0  0.82 0 0  0.83 0 0  0.84 0 0  0.85 0 0  0.86 0 0  0.87 0 0  0.88 0 0  0.89 0 0  0.9 0 0  0.91 0 0  0.92 0 0  0.93 0 0  0.9399999999999999 0 0  0.95 0 0  0.96 0 0  0.97 0 0  0.98 0 0  0.99 0 0  1 0 0  0 0.01 0  0.01 0.01 0  0.02 0.01 0  0.03 0.01 0  0.04 0.01 0  0.05 0.01 0  0.06 0.01 0  0.07000000000000001 0.01 0  0.08 0.01 0  0.09 0.01 0  0.1 0.01 0  0.11 0.01 0  0.12 0.01 0  0.13 0.01 0  0.14 0.01 0  0.15 0.01 0  0.16 0.01 0  0.17 0.01 0  0.18 0.01 0  0.19 0.01 0  0.2 0.01 0  0.21 0.01 0  0.22 0.01 0  0.23 0.01 0  0.24 0.01 0  0.25 0.01 0  0.26 0.01 0  0.27 0.01 0  0.28 0.01 0  0.29 0.01 0  0.3 0.01 0  0.31 0.01 0  0.32 0.01 0  0.33 0.01 0  0.34 0.01 0  0.35 0.01 0  0.36 0.01 0  0.37 0.01 0  0.38 0.01 0  0.39 0.01 0  0.4 0.01 0  0.41 0.01 0  0.42 0.01 0  0.43 0.01 0  0.44 0.01 0  0.45 0.01 0  0.46 0.01 0  0.47 0.01 0  0.48 0.01 0  0.49 0.01 0  0.5 0.01 0  0.51 0.01 0  0.52 0.01 0  0.53 0.01 0  0.54 0.01 0  0.55 0.01 0  0.5600000000000001 0.01 0  0.57 0.01 0  0.58 0.01 0  0.59 0.01 0  0.6 0.01 0  0.61 0.01 0  0.62 0.01 0  0.63 0.01 0  0.64 0.01 0  0.65 0.01 0  0.66 0.01 0  0.67 0.01 0  0.68 0.01 0  0.6899999999999999 0.01 0  0.7 0.01 0  0.71 0.01 0  0.72 0.01 0  0.73 0.01 0  0.74 0.01 0  0.75 0.01 0  0.76 0.01 0  0.77 0.01 0  0.78 0.01 0  0.79 0.01 0  0.8 0.01 0  0.8100000000000001 0.01 0  0.82 0.01 0  0.83 0.01 0  0.84 0.01 0  0.85 0.01 0  0.86 0.01 0  0.87 0.01 0  0.88 0.01 0  0.89 0.01 0  0.9 0.01 0  0.91 0.01 0  0.92 0.01 0  0.93 0.01 0  0.9399999999999999 0.01 0  0.95 0.01 0  0.96 0.01 0  0.97 0.01 0  0.98 0.01 0  0.99 0.01 0  1 0.01 0  0 0.02 0  0.01 0.02 0  0.02 0.02 0  0.03 0.02 0  0.04 0.02 0  0.05 0.02 0  0.06 0.02 0  0.07000000000000001 0.02 0  0.08 0.02 0  0.09 0.02 0  0.1 0.02 0  0.11 0.02 0  0.12 0.02 0  0.13 0.02 0  0.14 0.02 0  0.15 0.02 0  0.16 0.02 0  0.17 0.02 0  0.18 0.02 0  0.19 0.02 0  0.2 0.02 0  0.21 0.02 0  0.22 0.02 0  0.23 0.02 0  0.24 0.02 0  0.25 0.02 0  0.26 0.02 0  0.27 0.02 0  0.28 0.02 0  0.29 0.02 0  0.3 0.02 0  0.31 0.02 0  0.32 0.02 0  0.33 0.02 0  0.34 0.02 0  0.35 0.02 0  0.36 0.02 0  0.37 0.02 0  0.38 0.02 0  0.39 0.02 0  0.4 0.02 0  0.41 0.02 0  0.42 0.02 0  0.43 0.02 0  0.44 0.02 0  0.45 0.02 0  0.46 0.02 0  0.47 0.02 0  0.48 0.02 0  0.49 0.02 0  0.5 0.02 0  0.51 0.02 0  0.52 0.02 0  0.53 0.02 0  0.54 0.02 0  0.55 0.02 0  0.5600000000000001 0.02 0  0.57 0.02 0  0.58 0.02 0  0.59 0.02 0  0.6 0.02 0  0.61 0.02 0  0.62 0.02 0  0.63 0.02 0  0.64 0.02 0  0.65 0.02 0  0.66 0.02 0  0.67 0.02 0  0.68 0.02 0  0.6899999999999999 0.02 0  0.7 0.02 0  0.71 0.02 0  0.72 0.02 0  0.73 0.02 0  0.74 0.02 0  0.75 0.02 0  0.76 0.02 0  0.77 0.02 0  0.78 0.02 0  0.79 0.02 0  0.8 0.02 0  0.8100000000000001 0.02 0  0.82 0.02 0  0.83 0.02 0  0.84 0.02 0  0.85 0.02 0  0.86 0.02 0  0.87 0.02 0  0.88 0.02 0  0.89 0.02 0  0.9 0.02 0  0.91 0.02 0  0.92 0.02 0  0.93 0.02 0  0.9399999999999999 0.02 0  0.95 0.02 0  0.96 0.02 0  0.97 0.02 0  0.98 0.02 0  0.99 0.02 0  1 0.02 0  0 0.03000000000000001 0  0.01 0.03000000000000001 0  0.02 0.03000000000000001 0  0.03 0.03000000000000001 0  0.04 0.03000000000000001 0  0.05 0.03000000000000001 0  0.06 0.03000000000000001 0  0.07000000000000001 0.03000000000000001 0  0.08 0.03000000000000001 0  0.09 0.03000000000000001 0  0.1 0.03000000000000001 0  0.11 0.03000000000000001 0  0.12 0.03000000000000001 0  0.13 0.03000000000000001 0  0.14 0.03000000000000001 0  0.15 0.03000000000000001 0  0.16 0.03000000000000001 0  0.17 0.03000000000000001 0  0.18 0.03000000000000001 0  0.19 0.03000000000000001 0  0.2 0.03000000000000001 0  0.21 0.03000000000000001 0  0.22 0.03000000000000001 0  0.23 0.03000000000000001 0  0.24 0.03000000000000001 0  0.25 0.03000000000000001 0  0.26 0.03000000000000001 0  0.27 0.03000000000000001 0  0.28 0.03000000000000001 0  0.29 0.03000000000000001 0  0.3 0.03000000000000001 0  0.31 0.03000000000000001 0  0.32 0.03000000000000001 0  0.33 0.03000000000000001 0  0.34 0.03000000000000001 0  0.35 0.03000000000000001 0  0.36 0.03000000000000001 0  0.37 0.03000000000000001 0  0.38 0.03000000000000001 0  0.39 0.03000000000000001 0  0.4 0.03000000000000001 0  0.41 0.03000000000000001 0  0.42 0.03000000000000001 0  0.43 0.03000000000000001 0  0.44 0.03000000000000001 0  0.45 0.03000000000000001 0  0.46 0.03000000000000001 0  0.47 0.03000000000000001 0  0.48 0.03000000000000001 0  0.49 0.03000000000000001 0  0.5 0.03000000000000001 0  0.51 0.03000000000000001 0  0.52 0.03000000000000001 0  0.53 0.03000000000000001 0  0.54 0.03000000000000001 0  0.55 0.03000000000000001 0  0.5600000000000001 0.03000000000000001 0  0.57 0.03000000000000001 0  0.58 0.03000000000000001 0  0.59 0.03000000000000001 0  0.6 0.03000000000000001 0  0.61 0.03000000000000001 0  0.62 0.03000000000000001 0  0.63 0.03000000000000001 0  0.64 0.03000000000000001 0  0.65 0.03000000000000001 0  0.66 0.03000000000000001 0  0.67 0.03000000000000001 0  0.68 0.03000000000000001 0  0.6899999999999999 0.03000000000000001 0  0.7 0.03000000000000001 0  0.71 0.03000000000000001 0  0.72 0.03000000000000001 0  0.73 0.03000000000000001 0  0.74 0.03000000000000001 0  0.75 0.03000000000000001 0  0.76 0.03000000000000001 0  0.77 0.03000000000000001 0  0.78 0.03000000000000001 0  0.79 0.03000000000000001 0  0.8 0.03000000000000001 0  0.8100000000000001 0.03000000000000001 0  0.82 0.03000000000000001 0  0.83 0.03000000000000001 0  0.84 0.03000000000000001 0  0.85 0.03000000000000001 0  0.86 0.03000000000000001 0  0.87 0.03000000000000001 0  0.88 0.03000000000000001 0  0.89 0.03000000000000001 0  0.9 0.03000000000000001 0  0.91 0.03000000000000001 0  0.92 0.03000000000000001 0  0.93 0.03000000000000001 0  0.9399999999999999 0.03000000000000001 0  0.95 0.03000000000000001 0  0.96 0.03000000000000001 0  0.97 0.03000000000000001 0  0.98 0.03000000000000001 0  0.99 0.03000000000000001 0  1 0.03000000000000001 0  0 0.04 0  0.01 0.04 0  0.02 0.04 0  0.03 0.04 0  0.04 0.04 0  0.05 0.04 0  0.06 0.04 0  0.07000000000000001 0.04 0  0.08 0.04 0  0.09 0.04 0  0.1 0.04 0  0.11 0.04 0  0.12 0.04 0  0.13 0.04 0  0.14 0.04 0  0.15 0.04 0  0.16 0.04 0  0.17 0.04 0  0.18 0.04 0  0.19 0.04 0  0.2 0.04 0  0.21 0.04 0  0.22 0.04 0  0.23 0.04 0  0.24 0.04 0  0.25 0.04 0  0.26 0.04 0  0.27 0.04 0  0.28 0.04 0  0.29 0.04 0  0.3 0.04 0  0.31 0.04 0  0.32 0.04 0  0.33 0.04 0  0.34 0.04 0  0.35 0.04 0  0.36 0.04 0  0.37 0.04 0  0.38 0.04 0  0.39 0.04 0  0.4 0.04 0  0.41 0.04 0  0.42 0.04 0  0.43 0.04 0  0.44 0.04 0  0.45 0.04 0  0.46 0.04 0  0.47 0.04 0  0.48 0.04 0  0.49 0.04 0  0.5 0.04 0  0.51 0.04 0  0.52 0.04 0  0.53 0.04 0  0.54 0.04 0  0.55 0.04 0  0.5600000000000001 0.04 0  0.57 0.04 0  0.58 0.04 0  0.59 0.04 0  0.6 0.04 0  0.61 0.04 0  0.62 0.04 0  0.63 0.04 0  0.64 0.04 0  0.65 0.04 0  0.66 0.04 0  0.67 0.04 0  0.68 0.04 0  0.6899999999999999 0.04 0  0.7 0.04 0  0.71 0.04 0  0.72 0.04 0  0.73 0.04 0  0.74 0.04 0  0.75 0.04 0  0.76 0.04 0  0.77 0.04 0  0.78 0.04 0  0.79 0.04 0  0.8 0.04 0  0.8100000000000001 0.04 0  0.82 0.04 0  0.83 0.04 0  0.84 0.04 0  0.85 0.04 0  0.86 0.04 0  0.87 0.04 0  0.88 0.04 0  0.89 0.04 0  0.9 0.04 0  0.91 0.04 0  0.92 0.04 0  0.93 0.04 0  0.9399999999999999 0.04 0  0.95 0.04 0  0.96 0.04 0  0.97 0.04 0  0.98 0.04 0  0.99 0.04 0  1 0.04 0  0 0.05 0  0.01 0.05 0  0.02 0.05 0  0.03 0.05 0  0.04 0.05 0  0.05 0.05 0  0.06 0.05 0  0.07000000000000001 0.05 0  0.08 0.05 0  0.09 0.05 0  0.1 0.05 0  0.11 0.05 0  0.12 0.05 0  0.13 0.05 0  0.14 0.05 0  0.15 0.05 0  0.16 0.05 0  0.17 0.05 0  0.18 0.05 0  0.19 0.05 0  0.2 0.05 0  0.21 0.05 0  0.22 0.05 0  0.23 0.05 0  0.24 0.05 0  0.25 0.05 0  0.26 0.05 0  0.27 0.05 0  0.28 0.05 0  0.29 0.05 0  0.3 0.05 0  0.31 0.05 0  0.32 0.05 0  0.33 0.05 0  0.34 0.05 0  0.35 0.05 0  0.36 0.05 0  0.37 0.05 0  0.38 0.05 0  0.39 0.05 0  0.4 0.05 0  0.41 0.05 0  0.42 0.05 0  0.43 0.05 0  0.44 0.05 0  0.45 0.05 0  0.46 0.05 0  0.47 0.05 0  0.48 0.05 0  0.49 0.05 0  0.5 0.05 0  0.51 0.05 0  0.52 0.05 0  0.53 0.05 0  0.54 0.05 0  0.55 0.05 0  0.5600000000000001 0.05 0  0.57 0.05 0  0.58 0.05 0  0.59 0.05 0  0.6 0.05 0  0.61 0.05 0  0.62 0.05 0  0.63 0.05 0  0.64 0.05 0  0.65 0.05 0  0.66 0.05 0  0.67 0.05 0  0.68 0.05 0  0.6899999999999999 0.05 0  0.7 0.05 0  0.71 0.05 0  0.72 0.05 0  0.73 0.05 0  0.74 0.05 0  0.75 0.05 0  0.76 0.05 0  0.77 0.05 0  0.78 0.05 0  0.79 0.05 0  0.8 0.05 0  0.8100000000000001 0.05 0  0.82 0.05 0  0.83 0.05 0  0.84 0.05 0  0.85 0.05 0  0.86 0.05 0  0.87 0.05 0  0.88 0.05 0  0.89 0.05 0  0.9 0.05 0  0.91 0.05 0  0.92 0.05 0  0.93 0.05 0  0.9399999999999999 0.05 0  0.95 0.05 0  0.96 0.05 0  0.97 0.05 0  0.98 0.05 0  0.99 0.05 0  1 0.05 0  0 0.06000000000000001 0  0.01 0.06000000000000001 0  0.02 0.06000000000000001 0  0.03 0.06000000000000001 0  0.04 0.06000000000000001 0  0.05 0.06000000000000001 0  0.06 0.06000000000000001 0  0.07000000000000001 0.06000000000000001 0  0.08 0.06000000000000001 0  0.09 0.06000000000000001 0  0.1 0.06000000000000001 0  0.11 0.06000000000000001 0  0.12 0.
[...]
<PointData  Scalars="f_30"> 
<DataArray  type="Float64"  Name="f_30"  format="ascii">1.4926578130577460e+08  8.9939615843948737e+07  7.7268417870084688e+07  6.5146051490132347e+07  5.7232947617231652e+07  5.0887918976116002e+07  4.5674681417320229e+07  4.1274121333889097e+07  3.7504002306975044e+07  3.4251164255970031e+07  3.1437499135291383e+07  2.9005611524163522e+07  2.6910320025537331e+07  2.5113933663610246e+07  2.3583519485651277e+07  2.2289335122689836e+07  2.1203981558484174e+07  2.0302006912561651e+07  1.9559784049301457e+07  1.8955534209163059e+07  1.8469403039929830e+07  1.8083525120331883e+07  1.7782040502860419e+07  1.7551050136011265e+07  1.7378513986001968e+07  1.7254105450504325e+07  1.7169039132682722e+07  1.7115888119089320e+07  1.7088403623275869e+07  1.7081345844973184e+07  1.7090331173218638e+07  1.7111697911836915e+07  1.7142390636450768e+07  1.7179862008809324e+07  1.7221990200731855e+07  1.7267009832731932e+07  1.7313454355033103e+07  1.7360107972987507e+07  1.7405965463126063e+07  1.7450198488166727e+07  1.7492127269145716e+07  1.7531196695253931e+07  1.7566956141337603e+07  1.7599042419388123e+07  1.7627165416709583e+07  1.7651096074130818e+07  1.7670656437220324e+07  1.7685711576307446e+07  1.7696163221028816e+07  1.7701944995326102e+07  1.7703019171964552e+07  1.7699374893877592e+07  1.7691027834741268e+07  1.7678021294648103e+07  1.7660428749946482e+07  1.7638357900580388e+07  1.7611956285050265e+07  1.7581418564099364e+07  1.7546995611439701e+07  1.7509005595784597e+07  1.7467847296243701e+07  1.7424015966519043e+07  1.7378122156707004e+07  1.7330914019752115e+07  1.7283303777690493e+07  1.7236399205033343e+07  1.7191541205130067e+07  1.7150348807837468e+07  1.7114773193043396e+07  1.7087162621132236e+07  1.7070340384776566e+07  1.7067698014196265e+07  1.7083305860206600e+07  1.7122042692012023e+07  1.7189744884847660e+07  1.7293373923507441e+07  1.7441198140146270e+07  1.7642980820569299e+07  1.7910162360153947e+07  1.8256019868916031e+07  1.8695785044047516e+07  1.9246702410600353e+07  1.9928017525771815e+07  2.0760900103197262e+07  2.1768330200918429e+07  2.2975004646444932e+07  2.4407353057036962e+07  2.6093788886376373e+07  2.8065368121474847e+07  3.0357116239301503e+07  3.3010440808243737e+07  3.6077491380530789e+07  3.9628774506866440e+07  4.3768916412715673e+07  4.8663191003025785e+07  5.4608689758693829e+07  6.2206884548538029e+07  7.2468540988626793e+07  8.9675868163374677e+07  1.1984400295734103e+08  1.9713577226346180e+08  1.3093024838831155e+08  1.0648329528840342e+08  7.9590148868994132e+07  6.7776958802944928e+07  5.9410860761020690e+07  5.2745905409036227e+07  4.7336681654003769e+07  4.2771407297310799e+07  3.8864002462111667e+07  3.5489662563188717e+07  3.2564668874367986e+07  3.0028357756016839e+07  2.7833732886515785e+07  2.5942269684979305e+07  2.4320825627689376e+07  2.2939838054247383e+07  2.1772299318954051e+07  2.0793221960700732e+07  1.9979409984741107e+07  1.9309408004094616e+07  1.8763534927555509e+07  1.8323935836779770e+07  1.7974609646197561e+07  1.7701391236600503e+07  1.7491883511408545e+07  1.7335346102508359e+07  1.7222553265959337e+07  1.7145634906039104e+07  1.7097913178624783e+07  1.7073744224159602e+07  1.7068371371477999e+07  1.7077793298974991e+07  1.7098648429905202e+07  1.7128115316700827e+07  1.7163827845039956e+07  1.7203803622154780e+07  1.7246383764994178e+07  1.7290182354183748e+07  1.7334043980336420e+07  1.7377008018787630e+07  1.7418278488263763e+07  1.7457198555874530e+07  1.7493228934015244e+07  1.7525929570391763e+07  1.7554944160840075e+07  1.7579987118570734e+07  1.7600832716551870e+07  1.7617306185769316e+07  1.7629276604645960e+07  1.7636651457107313e+07  1.7639372771300465e+07  1.7637414780007947e+07  1.7630783069154613e+07  1.7619515204011310e+07  1.7603682845092673e+07  1.7583395388608936e+07  1.7558805190973576e+07  1.7530114464780085e+07  1.7497583966588508e+07  1.7461543636952486e+07  1.7422405402987733e+07  1.7380678416601848e+07  1.7336987080974039e+07  1.7292092318118248e+07  1.7246916655590009e+07  1.7202573864253532e+07  1.7160404063438948e+07  1.7122015423120793e+07  1.7089333826806340e+07  1.7064662094905868e+07  1.7050750571591925e+07  1.7050880990767930e+07  1.7068965471069418e+07  1.7109662123395890e+07  1.7178507932356372e+07  1.7282068125049468e+07  1.7428099025520530e+07  1.7625718382089052e+07  1.7885573559723105e+07  1.8219994422987238e+07  1.8643115341147237e+07  1.9170951198604118e+07  1.9821417519789662e+07  2.0614296406646430e+07  2.1571168442631532e+07  2.2715355100650214e+07  2.4071944784278177e+07  2.5668008332794368e+07  2.7533150885135610e+07  2.9700611819013465e+07  3.2209234003843062e+07  3.5106844637304716e+07  3.8455934224309340e+07  4.2343483803785123e+07  4.6896280756507926e+07  5.2317114239473708e+07  5.8900308758584566e+07  6.7242002941891491e+07  7.8320202063473597e+07  9.1893872579872981e+07  1.2255692530983083e+08  9.9603084252045408e+07  9.0733736531147718e+07  8.0182274941496253e+07  6.8399369173940003e+07  5.9439399969825789e+07  5.2557106858996145e+07  4.6980741958664939e+07  4.2319165693282649e+07  3.8366969346997663e+07  3.4981497833271712e+07  3.2069326976984799e+07  2.9561884824365884e+07  2.7406261481956888e+07  2.5559363282634851e+07  2.3984569724744014e+07  2.2649769127572771e+07  2.1526203150492266e+07  2.0587808323365320e+07  1.9810859241130933e+07  1.9173786762242179e+07  1.8657085008870617e+07  1.8243249446721673e+07  1.7916710690192670e+07  1.7663746460246738e+07  1.7472367236472160e+07  1.7332179497333068e+07  1.7234234552002903e+07  1.7170871878889244e+07  1.7135564816721220e+07  1.7122774470927797e+07  1.7127815556865364e+07  1.7146736033468299e+07  1.7176210962333966e+07  1.7213450071734365e+07  1.7256117943249453e+07  1.7302265473162327e+07  1.7350271196881436e+07  1.7398791124774236e+07  1.7446715864526369e+07  1.7493133959619753e+07  1.7537300531565413e+07  1.7578610461578298e+07  1.7616575479023725e+07  1.7650804637245063e+07  1.7680987752915904e+07  1.7706881464759853e+07  1.7728297633769009e+07  1.7745093862414114e+07  1.7757165957055427e+07  1.7764442197848532e+07  1.7766879315581113e+07  1.7764460106501974e+07  1.7757192645497706e+07  1.7745111085966978e+07  1.7728278062366679e+07  1.7706788739556078e+07  1.7680776582691468e+07  1.7650420953569937e+07  1.7615956675217040e+07  1.7577685747628879e+07  1.7535991445676081e+07  1.7491355087347206e+07  1.7444375829142354e+07  1.7395793928121343e+07  1.7346518009419035e+07  1.7297656995985892e+07  1.7250557494582515e+07  1.7206847586646728e+07  1.7168488137860179e+07  1.7137832901793338e+07  1.7117698825259630e+07  1.7111448024468962e+07  1.7123082830016702e+07  1.7157355010881584e+07  1.7219889679297697e+07  1.7317323341242749e+07  1.7457454011998143e+07  1.7649399273069516e+07  1.7903755795331925e+07  1.8232751668342959e+07  1.8650381699215718e+07  1.9172516873426028e+07  1.9816983773344178e+07  2.0603619096826516e+07  2.1554319044864736e+07  2.2693123033881351e+07  2.4046395470371243e+07  2.5643199281037383e+07  2.7515994393966321e+07  2.9701856527208451e+07  3.2244504092372358e+07  3.5197615893010892e+07  3.8630088063286871e+07  4.2634708989704363e+07  4.7340955399909161e+07  5.2938850057566568e+07  5.9696403738525413e+07  6.8074829690193027e+07  7.8369244184119999e+07  9.1828628524414375e+07  1.0626692638486961e+08  8.8748301504473493e+07  8.5295224001270056e+07  7.7000558009140089e+07  6.7570266565605193e+07  5.9414843346743107e+07  5.2655798866937764e+07  4.7032004434201039e+07  4.2316624895695016e+07  3.8320446434937768e+07  3.4909561816297933e+07  3.1988531005499020e+07  2.9484385936272144e+07  2.7339978907019749e+07  2.5508569828040659e+07  2.3950747795255404e+07  2.2632446182835575e+07  2.1523693924540278e+07  2.0597823579731446e+07  1.9830966191014700e+07  1.9201723453264721e+07  1.8690943944076996e+07  1.8281554684171777e+07  1.7958416899839226e+07  1.7708188061255869e+07  1.7519181908099450e+07  1.7381224631728020e+07  1.7285509101671007e+07  1.7224450615301870e+07  1.7191547805219594e+07  1.7181251693638895e+07  1.7188844923160292e+07  1.7210332231564619e+07  1.7242342437289108e+07  1.7282041617645182e+07  1.7327056785969853e+07  1.7375409169437632e+07  1.7425456110859003e+07  1.7475840623699814e+07  1.7525447686365660e+07  1.7573366445218518e+07  1.7618857589547098e+07  1.7661325255733509e+07  1.7700292906537063e+07  1.7735382712119121e+07  1.7766298031394117e+07  1.7792808655813221e+07  1.7814738533631131e+07  1.7831955742168210e+07  1.7844364519691501e+07  1.7851899208379880e+07  1.7854519996389728e+07  1.7852210381171457e+07  1.7844976308683321e+07  1.7832846974709641e+07  1.7815877305782050e+07  1.7794152168864381e+07  1.7767792391658813e+07  1.7736962709830303e+07  1.7701881794405852e+07  1.7662834552962940e+07  1.7620186942962870e+07  1.7574403585793950e+07  1.7526068526917823e+07  1.7475909552073035e+07  1.7424826542683296e+07  1.7373924435806055e+07  1.7324551444456890e+07  1.7278343290439341e+07  1.7237274298429601e+07  1.7203716287068509e+07  1.7180506253941379e+07  1.7171023862044513e+07  1.7179279661399920e+07  1.7210014777231220e+07  1.7268812416582271e+07  1.7362220945083175e+07  1.7497887448265366e+07  1.7684699662180439e+07  1.7932933088439051e+07  1.8254399308152713e+07  1.8662591473747808e+07  1.9172824351027127e+07  1.9802369840319436e+07  2.0570595263209477e+07  2.1499121237492047e+07  2.2612028804338992e+07  2.3936161748987317e+07  2.5501590734570522e+07  2.7342332591525666e+07  2.9497456115512978e+07  3.2012749858182564e+07  3.4943202456401899e+07  3.8356496668805122e+07  4.2337962425499663e+07  4.6995521672984734e+07  5.2467033014462546e+07  5.8905046282384865e+07  6.6486048698846653e+07  7.5078034318932220e+07  8.4733692278398335e+07  9.0019224065260321e+07  8.1300631949777603e+07  7.8445082394893378e+07  7.2319079943132207e+07  6.5409727001316875e+07  5.8436230226881541e+07  5.2083621307353742e+07  4.6616745783507474e+07  4.1952734183432870e+07  3.7976341111422174e+07  3.4583623702547789e+07  3.1686736970467929e+07  2.9213757194756292e+07  2.7105599894517064e+07  2.5312848047501866e+07  2.3793614140062455e+07  2.2511901364663083e+07  2.1436451585871030e+07  2.0539909451036345e+07  1.9798209875836648e+07  1.9190119188364692e+07  1.8696882026110910e+07  1.8301940549150925e+07  1.7990702633114375e+07  1.7750343101275776e+07  1.7569627549128089e+07  1.7438752339704983e+07  1.7349197154079426e+07  1.7293588290141076e+07  1.7265571944393981e+07  1.7259697212979939e+07  1.7271308707930773e+07  1.7296448656729370e+07  1.7331768243885219e+07  1.7374447827348832e+07  1.7422125554266777e+07  1.7472833823500428e+07  1.7524942998316657e+07  1.7577111757640094e+07  1.7628243482007738e+07  1.7677448094549920e+07  1.7724008812450927e+07  1.7767353306089114e+07  1.7807028808227386e+07  1.7842680761997312e+07  1.7874034642542310e+07  1.7900880632163282e+07  1.7923060872184157e+07  1.7940459056329492e+07  1.7952992170207791e+07  1.7960604219655734e+07  1.7963261827464007e+07  1.7960951613654178e+07  1.7953679309335623e+07  1.7941470588588320e+07  1.7924373637144417e+07  1.7902463511250220e+07  1.7875848375334177e+07  1.7844677743347034e+07  1.7809152886201888e+07  1.7769539606925007e+07  1.7726183626156334e+07  1.7679528863639008e+07  1.7630138946274415e+07  1.7578722319911398e+07  1.7526161389657933e+07  1.7473546161017668e+07  1.7422212899746832e+07  1.7373788369297136e+07  1.7330240237250362e+07  1.7293934261218265e+07  1.7267698864065241e+07  1.7254897681092810e+07  1.7259510601619665e+07  1.7286223730753992e+07  1.7340528567708269e+07  1.7428830551621947e+07  1.7558567002757724e+07  1.7738334454474594e+07  1.7978025534566067e+07  1.8288976054578166e+07  1.8684123967121635e+07  1.9178183514297761e+07  1.9787840334307969e+07  2.0531976569249198e+07  2.1431939110628843e+07  2.2511869015512254e+07  2.3799115799501762e+07  2.5324766779935822e+07  2.7124327436224207e+07  2.9238591801072415e+07  3.1714722931245245e+07  3.4607520696852274e+07  3.7980606293477423e+07  4.1907082157815337e+07  4.6467063543806180e+07  5.1741714070481181e+07  5.7779482776367106e+07  6.4576650004591636e+07  7.1775148075039923e+07  7.9009469679566190e+07  8.2528480266777024e+07  7.5882006384326071e+07  7.3462915225386292e+07  6.8564771285945162e+07  6.2829312594088599e+07  5.6766548776035413e+07  5.1029607665364027e+07  4.5869972055227228e+07  4.1358008412635379e+07  3.7469406820906803e+07  3.4139347455470935e+07  3.1297590609717164e+07  2.8878709221465487e+07  2.6824677525402866e+07  2.5085091537836507e+07  2.3616496465145551e+07  2.2381475711132202e+07  2.1347788011523668e+07  2.0487590810828876e+07  1.9776773435921956e+07  1.9194393570914797e+07  1.8722207827410012e+07  1.8344284786433563e+07  1.8046688168580331e+07  1.7817217722236529e+07  1.7645196075151231e+07  1.7521291111025788e+07  1.7437365190660208e+07  1.7386344451970059e+07  1.7362103237453241e+07  1.7359360239247613e+07  1.7373584144938074e+07  1.7400907413460556e+07  1.7438047359080829e+07  1.7482234041513696e+07  1.7531144621012870e+07  1.7582843897420768e+07  1.7635730756182071e+07  1.7688490222784031e+07  1.7740050799170692e+07  1.7789546732116528e+07  1.7836284849338036e+07  1.7879715595714331e+07  1.7919407908824299e+07  1.7955027588568930e+07  1.7986318838105489e+07  1.8013088680888571e+07  1.8035193989746213e+07  1.8052530897368498e+07  1.8065026392411992e+07  1.8072631940967027e+07  1.8075319008976404e+07  1.8073076397093542e+07  1.8065909335347522e+07  1.8053840320837870e+07  1.8036911717597414e+07  1.8015190173814796e+07  1.7988772947884168e+07  1.7957796271253776e+07  1.7922445912702464e+07  1.7882970145239562e+07  1.7839695352865081e+07  1.7793044549233858e+07  1.7743559112806551e+07  1.7691924071940657e+07  1.7638997296753421e+07  1.7585842970321037e+07  1.7533769717476599e+07  1.7484373762900982e+07  1.7439587469934937e+07  1.7401733578064073e+07  1.7373585414513938e+07  1.7358433314179447e+07  1.7360157462003864e+07  1.7383307405860152e+07  1.7433188625262801e+07  1.7515956848346356e+07  1.7638721365745213e+07  1.7809659473687079e+07  1.8038145441000458e+07  1.8334899020088729e+07  1.8712160379772682e+07  1.9183900142190997e+07  1.9766074502445869e+07  2.0476935611920070e+07  2.1337405864435587e+07  2.2371520784888197e+07  2.3606938034116797e+07  2.5075498194776263e+07  2.6813802397372153e+07  2.8863735810596172e+07  3.1272789946205817e+07  3.4093911368250199e+07  3.7384262680861861e+07  4.1202003855577588e+07  4.5598231399155587e+07  5.0603334610131502e+07  5.6188305942263968e+07  6.2239321474623941e+07  6.8316818818024918e+07  7.4041747218444377e+07  7.6514194713486761e+07  7.1717285103195459e+07  6.9329975858391583e+07  6.5030965109196380e+07  6.0065666621947274e+07  5.4752526699004248e+07  4.9566696522291467e+07  4.4759497346015401e+07  4.0471782291022465e+07  3.6731767015892930e+07  3.3512073168173093e+07  3.0762961405333813e+07  2.8428118621728774e+07  2.6452766994916689e+07  2.4786929685370751e+07  2.3386468892102130e+07  2.2213107363038592e+07  2.1233984632330161e+07  2.0421025156543542e+07  1.9750266059791129e+07  1.9201217142688904e+07  1.8756291356137846e+07  1.8400320832235709e+07  1.8120159687099829e+07  1.7904366117552102e+07  1.7742951716449857e+07  1.7627184396936722e+07  1.7549431917989079e+07  1.7503034867892936e+07  1.7482200354467142e+07  1.7481910040639106e+07  1.7497838234846011e+07  1.7526277361638665e+07  1.7564069289051499e+07  1.7608541737906002e+07  1.7657449435339350e+07  1.7708919892666657e+07  1.7761403764862530e+07  1.7813629745501373e+07  1.7864563908773951e+07  1.7913373355962761e+07  1.7959393972988244e+07  1.8002102066046674e+07  1.8041089616717793e+07  1.8076042886136547e+07  1.8106724098311439e+07  1.8132955943279020e+07  1.8154608659289226e+07  1.8171589477604207e+07  1.8183834242089022e+07  1.8191301047254842e+07  1.8193965771801613e+07  1.8191819419291716e+07  1.8184867212901458e+07  1.8173129426916406e+07  1.8156643973549563e+07  1.8135470799573634e+07  1.8109698182963118e+07  1.8079451054919224e+07  1.8044901506836634e+07  1.8006281674257565e+07  1.7963899219632674e+07  1.7918155661396824e+07  1.7869567816659082e+07  1.7818792636495560e+07  1.7766655713850275e+07  1.7714183731736723e+07  1.7662641091504518e+07  1.7613570916351248e+07  1.7568840565637715e+07  1.7530691727370150e+07  1.7501795093810648e+07  1.7485309594838310e+07  1.7484946208123736e+07  1.7505036547712538e+07  1.7550606838791367e+07  1.7627458619870000e+07  1.7742258681314740e+07  1.7902642430845946e+07  1.8117337074761838e+07  1.8396313575421453e+07  1.8750978926356673e+07  1.9194422225751400e+07  1.9741728361651741e+07  2.0410370593808401e+07  2.1220686438874263e+07  2.2196428360152435e+07  2.3365359776663832e+07  2.4759835154438805e+07  2.6417255372199364e+07  2.8380219865736585e+07  3.0696084993070010e+07  3.3415484940458056e+07  3.6589047714366615e+07  4.0261352870953016e+07  4.4459644412013695e+07  4.9177372203713439e+07  5.4337564839915618e+07  5.9774361276557557e+07  6.5055125752059251e+07  6.9850098916747048e+07  7.2074665291596144e+07  6.8353333390207708e+07  6.5877348228797466e+07  6.1920715076085068e+07  5.7416642683354728e+07  5.2592739110239059e+07  4.7834766548162125e+07  4.3368308055213019e+07  3.9334589965578243e+07  3.5784870915215284e+07  3.2716942723609157e+07  3.0096805039809827e+07  2.7876741405958969e+07  2.6005783357712645e+07  2.4435097847637080e+07  2.3120535523721389e+07  2.2023517082364142e+07  2.1111020908697393e+07  2.0355116507518090e+07  1.9732303482560541e+07  1.9222808512679804e+07  1.8809926604143463e+07  1.8479449239171069e+07  1.8219194191144824e+07  1.8018634280122302e+07  1.7868612667262036e+07  1.7761128173161648e+07  1.7689173745439116e+07  1.7646613067294654e+07  1.7628083203661762e+07  1.7628914291609809e+07  1.7645060091599118e+07  1.7673035485301033e+07  1.7709858678658351e+07  1.7752997000519816e+07  1.7800315883110303e+07  1.7850030987125266e+07  1.7900663595957275e+07  1.7950999433789924e+07  1.8000051021636415e+07  1.8047023614510052e+07  1.8091284686847705e+07  1.8132336865930952e+07  1.8169794160731647e+07  1.8203361298117314e+07  1.8232815958843376e+07  1.8257993700138774e+07  1.8278775357419200e+07  1.8295076732258629e+07  1.8306840395002421e+07  1.8314029456486117e+07  1.8316623192785241e+07  1.8314614438655566e+07  1.8308008698502865e+07  1.8296824957714591e+07  1.8281098211493544e+07  1.8260883762485925e+07  1.8236263371995039e+07  1.8207353381800309e+07  1.8174314953721415e+07  1.8137366600978788e+07  1.8096799207621619e+07  1.8052993747926224e+07  1.8006441924381632e+07  1.7957769937951054e+07  1.7907765584845636e+07  1.7857408837421339e+07  1.7807906011399608e+07  1.7760727548153639e+07  1.7717649354393050e+07  1.7680797554677244e+07  1.7652696448542725e+07  1.7636319463638164e+07  1.7635143020462543e+07  1.7653203559796065e+07  1.7695158642754301e+07  1.7766354144971371e+07  1.7872901255777836e+07  1.8021769340179641e+07  1.8220903696461558e+07  1.8479380620589480e+07  1.8807615450677205e+07  1.9217641499126311e+07  1.9723477604835305e+07  2.0341597559429493e+07  2.1091503453587398e+07  2.1996384133973792e+07  2.3083806019848134e+07  2.4386332871367760e+07  2.5941899295809962e+07  2.7793667759916656e+07  2.9988970580412205e+07  3.2576797114415959e+07  3.5603039190057226e+07  3.9102689815161295e+07  4.3087104664385080e+07  4.7527380793378077e+07  5.2322470556940027e+07  5.7290565244601265e+07  6.2033941339793354e+07  6.6306958367481321e+07  6.8509262795593813e+07  6.5579400506080389e+07  6.2940454090406753e+07  5.9130351787094183e+07  5.4871313959808663e+07  5.0367295560830608e+07  4.5934941183868483e+07  4.1764930745065115e+07  3.7985038012923852e+07  3.4650603966896713e+07  3.1767779175942067e+07  2.9310353472332142e+07  2.7235842114992913e+07  2.5495853397517379e+07  2.4042539857833628e+07  2.2832036117060587e+07  2.1825928698138159e+07  2.0991546728899311e+07  2.0301594849149205e+07  1.9733473262164600e+07  1.9268501143926181e+07  1.8891169718363054e+07  1.8588489831584550e